Executable      : siesta
Version         : 5.2.1
Architecture    : x86_64
Compiler version: GNU-13.3.0
Compiler flags  : -march=nocona -mtune=haswell -ftree-vectorize -fPIC -fstack-protector-strong -fno-plt -O2 -ffunction-sections -pipe -isystem <prefix>/include -I<prefix>/_build_env/include -fdebug-prefix-map=<prefix>/work=/usr/local/src/conda/siesta-5.2.1 -fdebug-prefix-map=<prefix>=/usr/local/src/conda-prefix -I<prefix>/lib -fallow-argument-mismatch -O3
Parallelisations: none
NetCDF support
NetCDF-4 support
Lua support
DFT-D3 support

Runtime information:
* Directory : /home/samba/homes/convidat/input_v_out
* Running in serial mode.
>> Start of run:  26-MAR-2025  17:17:46

                           *********************** 
                           *  WELCOME TO SIESTA  * 
                           *********************** 

 NOTE: Siesta V5 introduces some new defaults for basis-set generation
 NOTE: which might lead to slightly different numerical results.
 NOTE: Please see the manual for full details and compatibility measures.


reinit: Reading from file xoc.fdf

reinit: -----------------------------------------------------------------------
reinit: System Name: H2 + O2 -> H2O2 reaction
reinit: -----------------------------------------------------------------------
reinit: System Label: xoc
reinit: -----------------------------------------------------------------------

initatom: Reading input for the pseudopotentials and atomic orbitals ----------
Species number:   1 Atomic number:    8 Label: O
Species number:   2 Atomic number:    1 Label: H

Ground state valence configuration (from tables):   2s02  2p04  3d00  4f00
Ground state valence configuration (from tables):   1s01  2p00  3d00  4f00

---- Processing specs for species: O
Reading pseudopotential information in formatted form from:
  O.psf

---- Processing specs for species: H
Reading pseudopotential information in unformatted form from:
  H.vps

---- Pseudopotential check for O 

Pseudopotential generated from a fully relativistic atomic calculation
There are spin-orbit semi-local pseudopotentials available

Pseudized shells:
2s( 2.00) rc: 1.14
2p( 4.00) rc: 1.14
3d( 0.00) rc: 1.14
4f( 0.00) rc: 1.14
Valence configuration for ps generation: (assumed as above)

---- Pseudopotential check for H 

Pseudized shells:
1s( 1.00) rc: 1.25
2p( 0.00) rc: 1.25
3d( 0.00) rc: 1.25
4f( 0.00) rc: 1.25
Valence configuration for ps generation: (assumed as above)
For O, standard SIESTA heuristics set lmxkb to 3
 (one more than the basis l, including polarization orbitals).
Use PS.lmax or PS.KBprojectors blocks to override.
For H, standard SIESTA heuristics set lmxkb to 2
 (one more than the basis l, including polarization orbitals).
Use PS.lmax or PS.KBprojectors blocks to override.

<basis_specs>
===============================================================================
O                    Z=   8    Mass=  15.999        Charge= 0.17977+309
Lmxo=2 Lmxkb= 3    BasisType=split      Semic=F
L=0  Nsemic=0  Cnfigmx=2
          i=1  nzeta=1  polorb=0  (2s)
            splnorm:   0.15000    
               vcte:    40.000    
               rinn:  -0.90000    
               qcoe:    0.0000    
               qyuk:    0.0000    
               qwid:   0.10000E-01
                rcs:    0.0000    
            lambdas:    1.0000    
L=1  Nsemic=0  Cnfigmx=2
          i=1  nzeta=1  polorb=1  (2p)  (to be polarized perturbatively)
            splnorm:   0.15000    
               vcte:    40.000    
               rinn:  -0.90000    
               qcoe:    0.0000    
               qyuk:    0.0000    
               qwid:   0.10000E-01
                rcs:    0.0000    
            lambdas:    1.0000    
L=2  Nsemic=0  Cnfigmx=3
          i=1  nzeta=0  polorb=0  (3d)  (perturbative polarization orbital) (from 2p)
-------------------------------------------------------------------------------
L=0  Nkbl=1  erefs: 0.17977+309
L=1  Nkbl=1  erefs: 0.17977+309
L=2  Nkbl=1  erefs: 0.17977+309
L=3  Nkbl=1  erefs: 0.17977+309
===============================================================================
</basis_specs>

Using PAO.SplitTailNorm
atom: Called for O                     (Z =   8)
Maximum radius (at nrval) set to   50.00000 8518

read_vps: Pseudopotential generation method:
read_vps: ATM3      Troullier-Martins                       
Valence charge in pseudo generation:    6.00000

read_vps: Pseudopotential includes a core correction:
read_vps: Pseudo-core for xc-correction

xc_check: Exchange-correlation functional:
xc_check: GGA Perdew, Burke & Ernzerhof 1996
V l=0 = -2*Zval/r beyond r=  1.1355
V l=1 = -2*Zval/r beyond r=  1.1355
V l=2 = -2*Zval/r beyond r=  1.1309
V l=3 = -2*Zval/r beyond r=  1.1286
All V_l potentials equal beyond r=  1.1355
This should be close to max(r_c) in ps generation
All pots = -2*Zval/r beyond r=  1.1355
Using small-core scheme (local charge) for Vlocal

VLOCAL_FROM_CHLOCAL: 99.0% of the norm of Vloc inside     33.667 Ry
VLOCAL_FROM_CHLOCAL: 99.9% of the norm of Vloc inside     76.727 Ry
atom: Maximum radius for chlocal:    1.37241
atom: Maximum radius for r*vlocal+2*Zval:    1.25469

KBgen: Kleinman-Bylander projectors: 
GHOST: No ghost state for L =  0
   l= 0   rc=  1.357289   el= -1.759790   Ekb=  9.151830   kbcos=  0.327271
GHOST: No ghost state for L =  1
   l= 1   rc=  1.345038   el= -0.663797   Ekb= -7.991133   kbcos= -0.393963
GHOST: No ghost state for L =  2
   l= 2   rc=  1.779310   el=  0.012956   Ekb= -1.983219   kbcos= -0.003702
GHOST: No ghost state for L =  3
   l= 3   rc=  2.085579   el=  0.019231   Ekb= -0.873623   kbcos= -0.000360

KBgen: Total number of Kleinman-Bylander projectors:  16
atom: -------------------------------------------------------------------------

atom: SANKEY-TYPE ORBITALS:

SPLIT: Orbitals with angular momentum L= 0

SPLIT: Basis orbitals for state 2s

SPLIT: PAO cut-off radius determined from an
SPLIT: energy shift=  0.010000 Ry
Split based on tail norm

   izeta = 1
                 lambda =    1.000000
                     rc =    3.532490
                 energy =   -1.748682
                kinetic =    1.612754
    potential(screened) =   -3.361436
       potential(ionic) =  -11.306460

SPLIT: Orbitals with angular momentum L= 1

SPLIT: Basis orbitals for state 2p

SPLIT: PAO cut-off radius determined from an
SPLIT: energy shift=  0.010000 Ry
Split based on tail norm

   izeta = 1
                 lambda =    1.000000
                     rc =    4.299534
                 energy =   -0.652755
                kinetic =    4.913628
    potential(screened) =   -5.566382
       potential(ionic) =  -13.292903

POLgen: Perturbative polarization orbital with L=  2

POLgen: Polarization orbital for state 2p
Split based on tail norm

   izeta = 1
                     rc =    4.299534
                 energy =    2.258078
                kinetic =    4.298689
    potential(screened) =   -2.040611
       potential(ionic) =   -8.188336
atom: Total number of Sankey-type orbitals:  9

atm_pop: Valence configuration (for local Pseudopot. screening):
 2s( 2.00)                                                            
 2p( 4.00)                                                            
 3d( 0.00)                                                            
Vna: chval, zval:    6.00000   6.00000

Vna:  Cut-off radius for the neutral-atom potential:   4.299534
comcore: Pseudo-core radius Rcore=  1.364142

atom: _________________________________________________________________________

<basis_specs>
===============================================================================
H                    Z=   1    Mass=  1.0080        Charge= 0.17977+309
Lmxo=1 Lmxkb= 2    BasisType=split      Semic=F
L=0  Nsemic=0  Cnfigmx=1
          i=1  nzeta=1  polorb=1  (1s)  (to be polarized perturbatively)
            splnorm:   0.15000    
               vcte:    40.000    
               rinn:  -0.90000    
               qcoe:    0.0000    
               qyuk:    0.0000    
               qwid:   0.10000E-01
                rcs:    0.0000    
            lambdas:    1.0000    
L=1  Nsemic=0  Cnfigmx=2
          i=1  nzeta=0  polorb=0  (2p)  (perturbative polarization orbital) (from 1s)
-------------------------------------------------------------------------------
L=0  Nkbl=1  erefs: 0.17977+309
L=1  Nkbl=1  erefs: 0.17977+309
L=2  Nkbl=1  erefs: 0.17977+309
===============================================================================
</basis_specs>

Using PAO.SplitTailNorm
atom: Called for H                     (Z =   1)
Maximum radius (at nrval) set to   50.00000 8518

read_vps: Pseudopotential generation method:
read_vps: ATM3      Troullier-Martins                       
Valence charge in pseudo generation:    1.00000

xc_check: Exchange-correlation functional:
xc_check: GGA Perdew, Burke & Ernzerhof 1996
V l=0 = -2*Zval/r beyond r=  1.2384
V l=1 = -2*Zval/r beyond r=  1.2321
V l=2 = -2*Zval/r beyond r=  1.2235
All V_l potentials equal beyond r=  1.2371
This should be close to max(r_c) in ps generation
All pots = -2*Zval/r beyond r=  1.2384
Using small-core scheme (local charge) for Vlocal

VLOCAL_FROM_CHLOCAL: 99.0% of the norm of Vloc inside     28.363 Ry
VLOCAL_FROM_CHLOCAL: 99.9% of the norm of Vloc inside     64.639 Ry
atom: Maximum radius for chlocal:    1.44620
atom: Maximum radius for r*vlocal+2*Zval:    1.31026

KBgen: Kleinman-Bylander projectors: 
GHOST: No ghost state for L =  0
   l= 0   rc=  1.362769   el= -0.477200   Ekb= -2.026093   kbcos= -0.345051
GHOST: No ghost state for L =  1
   l= 1   rc=  1.431710   el=  0.007219   Ekb= -0.445752   kbcos= -0.023729
GHOST: No ghost state for L =  2
   l= 2   rc=  1.471166   el=  0.012944   Ekb= -0.141918   kbcos= -0.003041

KBgen: Total number of Kleinman-Bylander projectors:   9
atom: -------------------------------------------------------------------------

atom: SANKEY-TYPE ORBITALS:

SPLIT: Orbitals with angular momentum L= 0

SPLIT: Basis orbitals for state 1s

SPLIT: PAO cut-off radius determined from an
SPLIT: energy shift=  0.010000 Ry
Split based on tail norm

   izeta = 1
                 lambda =    1.000000
                     rc =    5.232664
                 energy =   -0.466073
                kinetic =    0.944036
    potential(screened) =   -1.410108
       potential(ionic) =   -1.935607

POLgen: Perturbative polarization orbital with L=  1

POLgen: Polarization orbital for state 1s
Split based on tail norm

   izeta = 1
                     rc =    5.232664
                 energy =    0.681103
                kinetic =    1.331928
    potential(screened) =   -0.650824
       potential(ionic) =   -1.138826
atom: Total number of Sankey-type orbitals:  4

atm_pop: Valence configuration (for local Pseudopot. screening):
 1s( 1.00)                                                            
 2p( 0.00)                                                            
Vna: chval, zval:    1.00000   1.00000

Vna:  Cut-off radius for the neutral-atom potential:   5.232664

atom: _________________________________________________________________________

prinput: Basis input 

PAO.BasisType split     

%block ChemicalSpeciesLabel
    1    8 O                       # Species index, atomic number, species label
    2    1 H                       # Species index, atomic number, species label
%endblock ChemicalSpeciesLabel

%block PAO.Basis                 # Define Basis set
# WARNING: This information might be incomplete!
O                     2                    # Species label, number of l-shells
 n=2   0   1                         # n, l, Nzeta 
   3.532   
   1.000   
 n=2   1   1 P   1                   # n, l, Nzeta, Polarization, NzetaPol
   4.300   
   1.000   
H                     1                    # Species label, number of l-shells
 n=1   0   1 P   1                   # n, l, Nzeta, Polarization, NzetaPol
   5.233   
   1.000   
%endblock PAO.Basis

prinput: ----------------------------------------------------------------------

Dumping basis to NetCDF file O.ion.nc
Dumping basis to NetCDF file H.ion.nc
coor:   Atomic-coordinates input format  =     Cartesian coordinates
coor:                                          (in Angstroms)

ioxv: Reading coordinates and velocities from file
! Info in XV file prevails over previous structure input
WARNING: xoc.VERLET_RESTART not found--reading only XV file and moving back 1 time step using Euler

siesta: Atomic coordinates (Bohr) and species
siesta:      2.54735  -0.00100  -0.00070  1        1
siesta:      5.01155  -0.00100  -0.00070  1        2
siesta:     12.94052   0.01600   0.01130  2        3
siesta:     14.34566   0.04982   0.01130  2        4

siesta: System type = chain     

initatomlists: Number of atoms, orbitals, and projectors:      4    26    50

coxmol: Writing XMOL coordinates into file xoc.xyz                                                                                                                                                                                                                             

siesta: ******************** Simulation parameters ****************************
siesta:
siesta: The following are some of the parameters of the simulation.
siesta: A complete list of the parameters used, including default values,
siesta: can be found in file out.fdf
siesta:
redata: Spin configuration                          = none
redata: Number of spin components                   = 1
redata: Time-Reversal Symmetry                      = T
redata: Spin spiral                                 = F
redata: Long output                                 =   F
redata: Number of Atomic Species                    =        2
redata: Charge density info will appear in .RHO file
redata: Write Mulliken charges (when)               = none
redata: Write Mulliken Pop.                         = NO
redata: Write Hirshfeld charges (when)              = none
redata: Write Voronoi charges (when)                = none
redata: Write spin charge (when)                    = none
redata: Matel table size (NRTAB)                    =     1024
redata: Mesh Cutoff                                 =   200.0000 Ry
redata: Net charge of the system                    =     0.0000 |e|
redata: Min. number of SCF Iter                     =        0
redata: Max. number of SCF Iter                     =      250
redata: SCF convergence failure will abort job
redata: SCF mix quantity                            = Hamiltonian
redata: Mix DM or H after convergence               =   F
redata: Recompute H after scf cycle                 =   F
redata: Mix DM in first SCF step                    =   T
redata: Write Pulay info on disk                    =   F
redata: New DM Occupancy tolerance                  = 0.000000000001
redata: No kicks to SCF
redata: DM Mixing Weight for Kicks                  =     0.5000
redata: Require Harris convergence for SCF          =   F
redata: Harris energy tolerance for SCF             =     0.000100 eV
redata: Require DM convergence for SCF              =   T
redata: DM tolerance for SCF                        =     0.000300
redata: Require EDM convergence for SCF             =   F
redata: EDM tolerance for SCF                       =     0.001000 eV
redata: Require H convergence for SCF               =   T
redata: Hamiltonian tolerance for SCF               =     0.001000 eV
redata: Require (free) Energy convergence for SCF   =   F
redata: (free) Energy tolerance for SCF             =     0.000100 eV
redata: Using DFT-D3 dispersion                     =   F
redata: Using Saved Data (generic)                  =   F
redata: Use continuation files for DM               =   T
redata: Neglect nonoverlap interactions             =   F
redata: Method of Calculation                       = Diagonalization
redata: Electronic Temperature                      =   290.1130 K
redata: Fix the spin of the system                  =   F
redata: Max. number of TDED Iter                    =        1
redata: Number of TDED substeps                     =        3
redata: Dynamics option                             = Verlet MD run
redata: Initial MD time step                        =        1
redata:   Final MD time step                        =      100
redata: Length of MD time step                      =     1.0000 fs
redata: Initial Temperature of MD run               =     0.0000 K
redata: Perform a MD quench                         =   F
mix.SCF: Pulay mixing                            = Pulay
mix.SCF:    Variant                              = stable
mix.SCF:    History steps                        = 6
mix.SCF:    Linear mixing weight                 =     0.020000
mix.SCF:    Mixing weight                        =     0.020000
mix.SCF:    SVD condition                        = 0.1000E-07
redata: Save all siesta data in one NC              =   F
redata: ***********************************************************************

%block SCF.Mixers
  Pulay
%endblock SCF.Mixers

%block SCF.Mixer.Pulay
  # Mixing method
  method pulay
  variant stable

  # Mixing options
  weight 0.0200
  weight.linear 0.0200
  history 6
%endblock SCF.Mixer.Pulay

Size of DM history Fstack: 1
Total number of electrons:    14.000000
Total ionic charge:    14.000000
 Kpoints in:            1 . Kpoints trimmed:            1

siesta: k-grid: Number of k-points = 1
siesta: k-points from Monkhorst-Pack grid
siesta: k-cutoff (effective) =     5.000 Ang
siesta: k-point supercell and displacements
siesta: k-grid:     1     0     0      0.000
siesta: k-grid:     0     1     0      0.000
siesta: k-grid:     0     0     1      0.000

diag: Algorithm                                     = D&C
diag: Used triangular part                          = Lower
diag: Absolute tolerance                            =  0.100E-15
diag: Orthogonalization factor                      =  0.100E-05
diag: Memory factor                                 =  1.0000


ts: **************************************************************
ts: Save H and S matrices                           =    F
ts: Save DM and EDM matrices                        =    F
ts: Only save the overlap matrix S                  =    F
ts: **************************************************************

************************ Begin: TS CHECKS AND WARNINGS ************************
************************ End: TS CHECKS AND WARNINGS **************************


                     ====================================
                        Begin MD step =      1
                     ====================================

outcell: Unit cell vectors (Ang):
       10.000004    0.000000    0.000000
        0.000000   10.000004    0.000000
        0.000000    0.000000   10.000004

outcell: Cell vector modules (Ang)   :   10.000004   10.000004   10.000004
outcell: Cell angles (23,13,12) (deg):     90.0000     90.0000     90.0000
outcell: Cell volume (Ang**3)        :   1000.0012
Gamma-point calculation with multiply-connected orbital pairs
Folding of H and S implicitly performed
<dSpData1D:S at geom step 1
  <sparsity:sparsity for geom step 1
    nrows_g=26 nrows=26 sparsity=1.0000 nnzs=676, refcount: 7>
  <dData1D:(new from dSpData1D) n=676, refcount: 1>
refcount: 1>
new_DM -- step:     1
Initializing Density Matrix...

Attempting to read DM from file... Failed...
DM filled with atomic data:
<dSpData2D:DM initialized from atoms
  <sparsity:sparsity for geom step 1
    nrows_g=26 nrows=26 sparsity=1.0000 nnzs=676, refcount: 8>
  <dData2D:DM n=676 m=1, refcount: 1>
refcount: 1>
No. of atoms with KB's overlaping orbs in proc 0. Max # of overlaps:       4      22

InitMesh: MESH = 90 x 90 x 90 = 729000
InitMesh: Mesh cutoff (required, used) =   200.000   223.865 Ry
New grid distribution [1]: sub = 2

stepf: Fermi-Dirac step function

siesta: Program's energy decomposition (eV):
siesta: Ebs     =      -209.892734
siesta: Eions   =      1581.702395
siesta: Ena     =       338.338243
siesta: Ekin    =       624.491192
siesta: Enl     =       -90.744156
siesta: Eso     =         0.000000
siesta: Edftu   =         0.000000
siesta: DEna    =        14.379086
siesta: DUscf   =         1.600478
siesta: DUext   =         0.000000
siesta: Ex      =      -190.456925
siesta: Ec      =       -13.816580
siesta: Exc     =      -204.273506
siesta: EbV     =         0.000000
siesta: eta*DQ  =         0.000000
siesta: Emadel  =         0.000000
siesta: Emeta   =         0.000000
siesta: Emolmec =         0.000000
siesta: Ekinion =         0.000000
siesta: Eharris =      -900.352245
siesta: Etot    =      -897.911057
siesta: FreeEng =      -897.980372

        iscf     Eharris(eV)        E_KS(eV)     FreeEng(eV)     dDmax    Ef(eV) dHmax(eV)
   scf:    1     -900.352245     -897.911057     -897.980372  0.774851 -4.685393  2.426543
timer: Routine,Calls,Time,% = IterSCF        1       0.590  25.39
   scf:    2     -897.949012     -897.930092     -897.999407  0.001845 -4.718029  2.360443
   scf:    3     -898.371875     -898.215101     -898.284416  0.064671 -5.798321  0.208280
   scf:    4     -898.215131     -898.216497     -898.285811  0.009113 -5.713171  0.384140
   scf:    5     -898.219250     -898.218414     -898.287728  0.008588 -5.925779  0.059846
   scf:    6     -898.218791     -898.218711     -898.288026  0.002358 -5.906114  0.016174
mix: Pulay -- inversion failed, > SVD [rank/size] 4 / 5
   scf:    7     -898.218724     -898.218718     -898.288032  0.000088 -5.907295  0.013549
   scf:    8     -898.218743     -898.218733     -898.288048  0.000430 -5.909716  0.001709
   scf:    9     -898.218733     -898.218733     -898.288048  0.000224 -5.910169  0.000208

SCF Convergence by DM+H criterion
max |DM_out - DM_in|         :     0.0002236415
max |H_out - H_in|      (eV) :     0.0002077351
SCF cycle converged after 9 iterations

Using DM_out to compute the final energy and forces
No. of atoms with KB's overlaping orbs in proc 0. Max # of overlaps:       4      22

siesta: E_KS(eV) =             -898.2187

siesta: E_KS - E_eggbox =      -898.2187

siesta: Atomic forces (eV/Ang):
----------------------------------------
   Tot    0.001040   -0.000790   -0.000167
----------------------------------------
   Max    4.201581
   Res    1.713278    sqrt( Sum f_i^2 / 3N )
----------------------------------------
   Max    4.201581    constrained

Stress tensor Voigt[x,y,z,yz,xz,xy] (kbar):      -21.21       -0.36       -0.25       -0.01        0.05       -0.55
(Free)E + p*V (eV/cell)     -893.7477
Target enthalpy (eV/cell)     -898.2880

siesta: Stress tensor (static) (eV/Ang**3):
        -0.003062   -0.000075   -0.000000
        -0.000075    0.000004    0.000000
        -0.000000    0.000000    0.000006

siesta: Pressure (static):          1.62980386  kBar

siesta: Stress tensor (total) (eV/Ang**3):
        -0.013240   -0.000340    0.000029
        -0.000340   -0.000227   -0.000009
         0.000029   -0.000009   -0.000154

siesta: Pressure (total):          7.27444333  kBar

siesta: Temp_ion =   13628.002 K

                     ====================================
                        Begin MD step =      2
                     ====================================

outcell: Unit cell vectors (Ang):
       10.000004    0.000000    0.000000
        0.000000   10.000004    0.000000
        0.000000    0.000000   10.000004

outcell: Cell vector modules (Ang)   :   10.000004   10.000004   10.000004
outcell: Cell angles (23,13,12) (deg):     90.0000     90.0000     90.0000
outcell: Cell volume (Ang**3)        :   1000.0012
<dSpData1D:S at geom step 2
  <sparsity:sparsity for geom step 2
    nrows_g=26 nrows=26 sparsity=.9763 nnzs=660, refcount: 7>
  <dData1D:(new from dSpData1D) n=660, refcount: 1>
refcount: 1>
new_DM -- step:     2
Re-using DM from previous geometries...
Number of DMs in history: 1
 DM extrapolation coefficients: 
1   1.00000
New DM after history re-use:
<dSpData2D:SpM extrapolated using coords
  <sparsity:sparsity for geom step 2
    nrows_g=26 nrows=26 sparsity=.9763 nnzs=660, refcount: 9>
  <dData2D:(temp array for extrapolation) n=660 m=1, refcount: 1>
refcount: 1>
No. of atoms with KB's overlaping orbs in proc 0. Max # of overlaps:       4      18

InitMesh: MESH = 90 x 90 x 90 = 729000
InitMesh: Mesh cutoff (required, used) =   200.000   223.865 Ry
New grid distribution [1]: sub = 2

        iscf     Eharris(eV)        E_KS(eV)     FreeEng(eV)     dDmax    Ef(eV) dHmax(eV)
   scf:    1     -898.117542     -898.301991     -898.371306  0.012567 -5.750900  0.162961
   scf:    2     -898.299898     -898.301696     -898.371001  0.012176 -5.884507  0.130187
   scf:    3     -898.303004     -898.302454     -898.371767  0.005499 -5.841057  0.070423
   scf:    4     -898.302439     -898.302591     -898.371901  0.010596 -5.853407  0.014386
   scf:    5     -898.302618     -898.302643     -898.371958  0.006578 -5.854803  0.012313
   scf:    6     -898.302612     -898.302631     -898.371945  0.001777 -5.867322  0.016132
   scf:    7     -898.302663     -898.302658     -898.371973  0.003102 -5.864627  0.000560
   scf:    8     -898.302658     -898.302658     -898.371973  0.000131 -5.864880  0.000301

SCF Convergence by DM+H criterion
max |DM_out - DM_in|         :     0.0001310797
max |H_out - H_in|      (eV) :     0.0003006122
SCF cycle converged after 8 iterations

Using DM_out to compute the final energy and forces
No. of atoms with KB's overlaping orbs in proc 0. Max # of overlaps:       4      18

siesta: E_KS(eV) =             -898.3027

siesta: Atomic forces (eV/Ang):
----------------------------------------
   Tot    0.000702    0.000145    0.000217
----------------------------------------
   Max    3.094985
   Res    1.286080    sqrt( Sum f_i^2 / 3N )
----------------------------------------
   Max    3.094985    constrained

Stress tensor Voigt[x,y,z,yz,xz,xy] (kbar):      -21.13       -0.37       -0.27       -0.03       -0.22       -0.62
(Free)E + p*V (eV/cell)     -893.8441
Target enthalpy (eV/cell)     -898.3720

siesta: Stress tensor (static) (eV/Ang**3):
        -0.003008   -0.000121   -0.000165
        -0.000121    0.000000   -0.000008
        -0.000165   -0.000008   -0.000006

siesta: Pressure (static):          1.60973154  kBar

siesta: Stress tensor (total) (eV/Ang**3):
        -0.013186   -0.000386   -0.000136
        -0.000386   -0.000231   -0.000017
        -0.000136   -0.000017   -0.000166

siesta: Pressure (total):          7.25437101  kBar

siesta: Temp_ion =   13792.334 K

                     ====================================
                        Begin MD step =      3
                     ====================================

outcell: Unit cell vectors (Ang):
       10.000004    0.000000    0.000000
        0.000000   10.000004    0.000000
        0.000000    0.000000   10.000004

outcell: Cell vector modules (Ang)   :   10.000004   10.000004   10.000004
outcell: Cell angles (23,13,12) (deg):     90.0000     90.0000     90.0000
outcell: Cell volume (Ang**3)        :   1000.0012
Gamma-point calculation with multiply-connected orbital pairs
Folding of H and S implicitly performed
<dSpData1D:S at geom step 3
  <sparsity:sparsity for geom step 3
    nrows_g=26 nrows=26 sparsity=1.0000 nnzs=676, refcount: 7>
  <dData1D:(new from dSpData1D) n=676, refcount: 1>
refcount: 1>
new_DM -- step:     3
Re-using DM from previous geometries...
Number of DMs in history: 1
 DM extrapolation coefficients: 
1   1.00000
New DM after history re-use:
<dSpData2D:SpM extrapolated using coords
  <sparsity:sparsity for geom step 3
    nrows_g=26 nrows=26 sparsity=1.0000 nnzs=676, refcount: 9>
  <dData2D:(temp array for extrapolation) n=676 m=1, refcount: 1>
refcount: 1>
Note: For starting DM, Qtot, Tr[D*S] =         14.00000000         13.95979823
No. of atoms with KB's overlaping orbs in proc 0. Max # of overlaps:       4      22

InitMesh: MESH = 90 x 90 x 90 = 729000
InitMesh: Mesh cutoff (required, used) =   200.000   223.865 Ry
New grid distribution [1]: sub = 2

        iscf     Eharris(eV)        E_KS(eV)     FreeEng(eV)     dDmax    Ef(eV) dHmax(eV)
   scf:    1     -898.136438     -898.427438     -898.496752  0.019598 -5.423762  0.502335
   scf:    2     -898.419231     -898.426071     -898.495319  0.020183 -5.867149  0.241958
   scf:    3     -898.430285     -898.428396     -898.497689  0.007953 -5.774376  0.153139
   scf:    4     -898.427898     -898.429167     -898.498446  0.024270 -5.802216  0.041773
   scf:    5     -898.429419     -898.429616     -898.498929  0.016611 -5.806205  0.034154
   scf:    6     -898.429683     -898.429652     -898.498964  0.000314 -5.830355  0.025398
   scf:    7     -898.429765     -898.429731     -898.499046  0.003247 -5.827388  0.001670
   scf:    8     -898.429730     -898.429731     -898.499046  0.000426 -5.827783  0.001007
   scf:    9     -898.429731     -898.429731     -898.499045  0.000069 -5.828083  0.000752

SCF Convergence by DM+H criterion
max |DM_out - DM_in|         :     0.0000685346
max |H_out - H_in|      (eV) :     0.0007523351
SCF cycle converged after 9 iterations

Using DM_out to compute the final energy and forces
No. of atoms with KB's overlaping orbs in proc 0. Max # of overlaps:       4      22

siesta: E_KS(eV) =             -898.4297

siesta: Atomic forces (eV/Ang):
----------------------------------------
   Tot   -0.000165    0.000230    0.000037
----------------------------------------
   Max    1.042279
   Res    0.427556    sqrt( Sum f_i^2 / 3N )
----------------------------------------
   Max    1.042279    constrained

Stress tensor Voigt[x,y,z,yz,xz,xy] (kbar):      -18.70       -0.37       -0.27       -0.03       -0.29       -0.61
(Free)E + p*V (eV/cell)     -894.4740
Target enthalpy (eV/cell)     -898.4990

siesta: Stress tensor (static) (eV/Ang**3):
        -0.001385   -0.000041   -0.000010
        -0.000041    0.000004   -0.000001
        -0.000010   -0.000001    0.000004

siesta: Pressure (static):          0.73604380  kBar

siesta: Stress tensor (total) (eV/Ang**3):
        -0.011674   -0.000380   -0.000183
        -0.000380   -0.000233   -0.000019
        -0.000183   -0.000019   -0.000168

siesta: Pressure (total):          6.44874860  kBar

siesta: Temp_ion =   14079.926 K

                     ====================================
                        Begin MD step =      4
                     ====================================

outcell: Unit cell vectors (Ang):
       10.000004    0.000000    0.000000
        0.000000   10.000004    0.000000
        0.000000    0.000000   10.000004

outcell: Cell vector modules (Ang)   :   10.000004   10.000004   10.000004
outcell: Cell angles (23,13,12) (deg):     90.0000     90.0000     90.0000
outcell: Cell volume (Ang**3)        :   1000.0012
<dSpData1D:S at geom step 4
  <sparsity:sparsity for geom step 4
    nrows_g=26 nrows=26 sparsity=1.0000 nnzs=676, refcount: 7>
  <dData1D:(new from dSpData1D) n=676, refcount: 1>
refcount: 1>
new_DM -- step:     4
Re-using DM from previous geometries...
Number of DMs in history: 1
 DM extrapolation coefficients: 
1   1.00000
New DM after history re-use:
<dSpData2D:SpM extrapolated using coords
  <sparsity:sparsity for geom step 4
    nrows_g=26 nrows=26 sparsity=1.0000 nnzs=676, refcount: 9>
  <dData2D:(temp array for extrapolation) n=676 m=1, refcount: 1>
refcount: 1>
Note: For starting DM, Qtot, Tr[D*S] =         14.00000000         13.95079849
No. of atoms with KB's overlaping orbs in proc 0. Max # of overlaps:       4      22

InitMesh: MESH = 90 x 90 x 90 = 729000
InitMesh: Mesh cutoff (required, used) =   200.000   223.865 Ry
New grid distribution [1]: sub = 2

        iscf     Eharris(eV)        E_KS(eV)     FreeEng(eV)     dDmax    Ef(eV) dHmax(eV)
   scf:    1     -898.005011     -898.338989     -898.408299  0.020775 -5.312815  0.618180
   scf:    2     -898.299182     -898.328036     -898.396663  0.078978 -5.848754  0.390798
   scf:    3     -898.344281     -898.337274     -898.406373  0.031149 -5.725974  0.260222
   scf:    4     -898.331785     -898.339601     -898.408741  0.072059 -5.770737  0.092397
   scf:    5     -898.341119     -898.341821     -898.411131  0.038913 -5.776407  0.037199
   scf:    6     -898.341873     -898.341854     -898.411168  0.002622 -5.781664  0.038166
   scf:    7     -898.342062     -898.341985     -898.411299  0.002536 -5.803519  0.001763
   scf:    8     -898.341985     -898.341985     -898.411300  0.000367 -5.802713  0.002392
   scf:    9     -898.341984     -898.341985     -898.411300  0.000472 -5.804152  0.001518
   scf:   10     -898.341985     -898.341985     -898.411299  0.000060 -5.804249  0.001317
   scf:   11     -898.341985     -898.341985     -898.411300  0.000386 -5.804668  0.000456
   scf:   12     -898.341985     -898.341985     -898.411300  0.000009 -5.804680  0.000416

SCF Convergence by DM+H criterion
max |DM_out - DM_in|         :     0.0000085767
max |H_out - H_in|      (eV) :     0.0004160020
SCF cycle converged after 12 iterations

Using DM_out to compute the final energy and forces
No. of atoms with KB's overlaping orbs in proc 0. Max # of overlaps:       4      22

siesta: E_KS(eV) =             -898.3420

siesta: Atomic forces (eV/Ang):
----------------------------------------
   Tot   -0.000927   -0.000073    0.000470
----------------------------------------
   Max    1.771682
   Res    0.948817    sqrt( Sum f_i^2 / 3N )
----------------------------------------
   Max    1.771682    constrained

Stress tensor Voigt[x,y,z,yz,xz,xy] (kbar):      -17.01       -0.36       -0.20        0.00        0.07       -0.51
(Free)E + p*V (eV/cell)     -894.7564
Target enthalpy (eV/cell)     -898.4113

siesta: Stress tensor (static) (eV/Ang**3):
        -0.000120    0.000069    0.000313
         0.000069    0.000013    0.000026
         0.000313    0.000026    0.000061

siesta: Pressure (static):          0.02403162  kBar

siesta: Stress tensor (total) (eV/Ang**3):
        -0.010614   -0.000321    0.000043
        -0.000321   -0.000227    0.000001
         0.000043    0.000001   -0.000124

siesta: Pressure (total):          5.85585533  kBar

siesta: Temp_ion =   13890.798 K

                     ====================================
                        Begin MD step =      5
                     ====================================

outcell: Unit cell vectors (Ang):
       10.000004    0.000000    0.000000
        0.000000   10.000004    0.000000
        0.000000    0.000000   10.000004

outcell: Cell vector modules (Ang)   :   10.000004   10.000004   10.000004
outcell: Cell angles (23,13,12) (deg):     90.0000     90.0000     90.0000
outcell: Cell volume (Ang**3)        :   1000.0012
<dSpData1D:S at geom step 5
  <sparsity:sparsity for geom step 5
    nrows_g=26 nrows=26 sparsity=1.0000 nnzs=676, refcount: 7>
  <dData1D:(new from dSpData1D) n=676, refcount: 1>
refcount: 1>
new_DM -- step:     5
Re-using DM from previous geometries...
Number of DMs in history: 1
 DM extrapolation coefficients: 
1   1.00000
New DM after history re-use:
<dSpData2D:SpM extrapolated using coords
  <sparsity:sparsity for geom step 5
    nrows_g=26 nrows=26 sparsity=1.0000 nnzs=676, refcount: 9>
  <dData2D:(temp array for extrapolation) n=676 m=1, refcount: 1>
refcount: 1>
Note: For starting DM, Qtot, Tr[D*S] =         14.00000000         13.96568609
No. of atoms with KB's overlaping orbs in proc 0. Max # of overlaps:       4      22

InitMesh: MESH = 90 x 90 x 90 = 729000
InitMesh: Mesh cutoff (required, used) =   200.000   223.865 Ry
New grid distribution [1]: sub = 2

        iscf     Eharris(eV)        E_KS(eV)     FreeEng(eV)     dDmax    Ef(eV) dHmax(eV)
   scf:    1     -897.955711     -898.206245     -898.275559  0.013789 -5.445326  0.453047
   scf:    2     -898.194879     -898.203494     -898.272773  0.021082 -5.832611  0.273239
   scf:    3     -898.208493     -898.206273     -898.275577  0.007775 -5.738649  0.187288
   scf:    4     -898.206759     -898.207439     -898.276729  0.019746 -5.780927  0.032112
   scf:    5     -898.207602     -898.207736     -898.277050  0.011645 -5.783978  0.026630
   scf:    6     -898.207764     -898.207752     -898.277065  0.000701 -5.793223  0.021234
   scf:    7     -898.207830     -898.207809     -898.277124  0.002814 -5.799089  0.001535
   scf:    8     -898.207808     -898.207809     -898.277124  0.000314 -5.799404  0.000724
   scf:    9     -898.207809     -898.207809     -898.277123  0.000027 -5.799557  0.000538

SCF Convergence by DM+H criterion
max |DM_out - DM_in|         :     0.0000273422
max |H_out - H_in|      (eV) :     0.0005383561
SCF cycle converged after 9 iterations

Using DM_out to compute the final energy and forces
No. of atoms with KB's overlaping orbs in proc 0. Max # of overlaps:       4      22

siesta: E_KS(eV) =             -898.2078

siesta: Atomic forces (eV/Ang):
----------------------------------------
   Tot   -0.001974   -0.000101    0.000042
----------------------------------------
   Max    2.558935
   Res    1.297161    sqrt( Sum f_i^2 / 3N )
----------------------------------------
   Max    2.558935    constrained

Stress tensor Voigt[x,y,z,yz,xz,xy] (kbar):      -15.96       -0.35       -0.05        0.06        0.60       -0.41
(Free)E + p*V (eV/cell)     -894.8734
Target enthalpy (eV/cell)     -898.2771

siesta: Stress tensor (static) (eV/Ang**3):
         0.000404    0.000133    0.000586
         0.000133    0.000022    0.000058
         0.000586    0.000058    0.000135

siesta: Pressure (static):         -0.30012046  kBar

siesta: Stress tensor (total) (eV/Ang**3):
        -0.009962   -0.000255    0.000376
        -0.000254   -0.000216    0.000040
         0.000376    0.000040   -0.000033

siesta: Pressure (total):          5.45336752  kBar

siesta: Temp_ion =   13571.253 K

                     ====================================
                        Begin MD step =      6
                     ====================================

outcell: Unit cell vectors (Ang):
       10.000004    0.000000    0.000000
        0.000000   10.000004    0.000000
        0.000000    0.000000   10.000004

outcell: Cell vector modules (Ang)   :   10.000004   10.000004   10.000004
outcell: Cell angles (23,13,12) (deg):     90.0000     90.0000     90.0000
outcell: Cell volume (Ang**3)        :   1000.0012
<dSpData1D:S at geom step 6
  <sparsity:sparsity for geom step 6
    nrows_g=26 nrows=26 sparsity=.9882 nnzs=668, refcount: 7>
  <dData1D:(new from dSpData1D) n=668, refcount: 1>
refcount: 1>
new_DM -- step:     6
Re-using DM from previous geometries...
Number of DMs in history: 1
 DM extrapolation coefficients: 
1   1.00000
New DM after history re-use:
<dSpData2D:SpM extrapolated using coords
  <sparsity:sparsity for geom step 6
    nrows_g=26 nrows=26 sparsity=.9882 nnzs=668, refcount: 9>
  <dData2D:(temp array for extrapolation) n=668 m=1, refcount: 1>
refcount: 1>
No. of atoms with KB's overlaping orbs in proc 0. Max # of overlaps:       4      22

InitMesh: MESH = 90 x 90 x 90 = 729000
InitMesh: Mesh cutoff (required, used) =   200.000   223.865 Ry
New grid distribution [1]: sub = 2

        iscf     Eharris(eV)        E_KS(eV)     FreeEng(eV)     dDmax    Ef(eV) dHmax(eV)
   scf:    1     -898.104503     -898.183138     -898.252449  0.012617 -5.725407  0.118806
   scf:    2     -898.162381     -898.176682     -898.245458  0.066280 -5.827049  0.131719
   scf:    3     -898.185252     -898.181964     -898.251171  0.033462 -5.790114  0.081941
   scf:    4     -898.182764     -898.183229     -898.252541  0.031075 -5.809755  0.030066
   scf:    5     -898.183197     -898.183278     -898.252592  0.008255 -5.810427  0.010069
   scf:    6     -898.183302     -898.183295     -898.252610  0.002353 -5.813426  0.005989
   scf:    7     -898.183302     -898.183300     -898.252615  0.000997 -5.817810  0.000361
   scf:    8     -898.183300     -898.183300     -898.252615  0.000126 -5.817969  0.000443

SCF Convergence by DM+H criterion
max |DM_out - DM_in|         :     0.0001259916
max |H_out - H_in|      (eV) :     0.0004432075
SCF cycle converged after 8 iterations

Using DM_out to compute the final energy and forces
No. of atoms with KB's overlaping orbs in proc 0. Max # of overlaps:       4      22

siesta: E_KS(eV) =             -898.1833

siesta: Atomic forces (eV/Ang):
----------------------------------------
   Tot   -0.002681   -0.000303   -0.000045
----------------------------------------
   Max    2.663452
   Res    1.382007    sqrt( Sum f_i^2 / 3N )
----------------------------------------
   Max    2.663452    constrained

Stress tensor Voigt[x,y,z,yz,xz,xy] (kbar):      -15.71       -0.33        0.12        0.13        1.04       -0.37
(Free)E + p*V (eV/cell)     -894.9393
Target enthalpy (eV/cell)     -898.2526

siesta: Stress tensor (static) (eV/Ang**3):
         0.000365    0.000135    0.000723
         0.000135    0.000026    0.000082
         0.000723    0.000082    0.000195

siesta: Pressure (static):         -0.31265237  kBar

siesta: Stress tensor (total) (eV/Ang**3):
        -0.009806   -0.000230    0.000649
        -0.000230   -0.000207    0.000083
         0.000649    0.000083    0.000073

siesta: Pressure (total):          5.30848195  kBar

siesta: Temp_ion =   13513.370 K

                     ====================================
                        Begin MD step =      7
                     ====================================

outcell: Unit cell vectors (Ang):
       10.000004    0.000000    0.000000
        0.000000   10.000004    0.000000
        0.000000    0.000000   10.000004

outcell: Cell vector modules (Ang)   :   10.000004   10.000004   10.000004
outcell: Cell angles (23,13,12) (deg):     90.0000     90.0000     90.0000
outcell: Cell volume (Ang**3)        :   1000.0012
Gamma-point calculation with multiply-connected orbital pairs
Folding of H and S implicitly performed
<dSpData1D:S at geom step 7
  <sparsity:sparsity for geom step 7
    nrows_g=26 nrows=26 sparsity=1.0000 nnzs=676, refcount: 7>
  <dData1D:(new from dSpData1D) n=676, refcount: 1>
refcount: 1>
new_DM -- step:     7
Re-using DM from previous geometries...
Number of DMs in history: 1
 DM extrapolation coefficients: 
1   1.00000
New DM after history re-use:
<dSpData2D:SpM extrapolated using coords
  <sparsity:sparsity for geom step 7
    nrows_g=26 nrows=26 sparsity=1.0000 nnzs=676, refcount: 9>
  <dData2D:(temp array for extrapolation) n=676 m=1, refcount: 1>
refcount: 1>
Note: For starting DM, Qtot, Tr[D*S] =         14.00000000         14.02692428
No. of atoms with KB's overlaping orbs in proc 0. Max # of overlaps:       4      26

InitMesh: MESH = 90 x 90 x 90 = 729000
InitMesh: Mesh cutoff (required, used) =   200.000   223.865 Ry
New grid distribution [1]: sub = 2

        iscf     Eharris(eV)        E_KS(eV)     FreeEng(eV)     dDmax    Ef(eV) dHmax(eV)
   scf:    1     -898.400443     -898.295415     -898.364728  0.013003 -6.050853  0.342775
   scf:    2     -898.220745     -898.272960     -898.342049  0.065254 -5.835278  0.587787
   scf:    3     -898.305953     -898.296136     -898.365440  0.045937 -5.972623  0.227020
   scf:    4     -898.292073     -898.295628     -898.364814  0.041967 -5.879216  0.055874
   scf:    5     -898.297372     -898.297080     -898.366392  0.026761 -5.866245  0.019842
   scf:    6     -898.297112     -898.297108     -898.366423  0.003868 -5.869675  0.015064
   scf:    7     -898.297139     -898.297127     -898.366442  0.000447 -5.860196  0.000807
   scf:    8     -898.297127     -898.297127     -898.366442  0.000139 -5.860606  0.000829

SCF Convergence by DM+H criterion
max |DM_out - DM_in|         :     0.0001388385
max |H_out - H_in|      (eV) :     0.0008294881
SCF cycle converged after 8 iterations

Using DM_out to compute the final energy and forces
No. of atoms with KB's overlaping orbs in proc 0. Max # of overlaps:       4      26

siesta: E_KS(eV) =             -898.2971

siesta: Atomic forces (eV/Ang):
----------------------------------------
   Tot    0.004192   -0.000466   -0.000265
----------------------------------------
   Max    2.204812
   Res    1.238161    sqrt( Sum f_i^2 / 3N )
----------------------------------------
   Max    2.204812    constrained

Stress tensor Voigt[x,y,z,yz,xz,xy] (kbar):      -16.59       -0.33        0.22        0.17        1.13       -0.47
(Free)E + p*V (eV/cell)     -894.8910
Target enthalpy (eV/cell)     -898.3664

siesta: Stress tensor (static) (eV/Ang**3):
        -0.000174    0.000068    0.000667
         0.000069    0.000020    0.000085
         0.000667    0.000085    0.000207

siesta: Pressure (static):         -0.02887488  kBar

siesta: Stress tensor (total) (eV/Ang**3):
        -0.010356   -0.000292    0.000704
        -0.000292   -0.000208    0.000107
         0.000704    0.000107    0.000138

siesta: Pressure (total):          5.56828464  kBar

siesta: Temp_ion =   13791.524 K

                     ====================================
                        Begin MD step =      8
                     ====================================

outcell: Unit cell vectors (Ang):
       10.000004    0.000000    0.000000
        0.000000   10.000004    0.000000
        0.000000    0.000000   10.000004

outcell: Cell vector modules (Ang)   :   10.000004   10.000004   10.000004
outcell: Cell angles (23,13,12) (deg):     90.0000     90.0000     90.0000
outcell: Cell volume (Ang**3)        :   1000.0012
<dSpData1D:S at geom step 8
  <sparsity:sparsity for geom step 8
    nrows_g=26 nrows=26 sparsity=1.0000 nnzs=676, refcount: 7>
  <dData1D:(new from dSpData1D) n=676, refcount: 1>
refcount: 1>
new_DM -- step:     8
Re-using DM from previous geometries...
Number of DMs in history: 1
 DM extrapolation coefficients: 
1   1.00000
New DM after history re-use:
<dSpData2D:SpM extrapolated using coords
  <sparsity:sparsity for geom step 8
    nrows_g=26 nrows=26 sparsity=1.0000 nnzs=676, refcount: 9>
  <dData2D:(temp array for extrapolation) n=676 m=1, refcount: 1>
refcount: 1>
Note: For starting DM, Qtot, Tr[D*S] =         14.00000000         14.05283751
No. of atoms with KB's overlaping orbs in proc 0. Max # of overlaps:       4      26

InitMesh: MESH = 90 x 90 x 90 = 729000
InitMesh: Mesh cutoff (required, used) =   200.000   223.865 Ry
New grid distribution [1]: sub = 2

        iscf     Eharris(eV)        E_KS(eV)     FreeEng(eV)     dDmax    Ef(eV) dHmax(eV)
   scf:    1     -898.675533     -898.446904     -898.516216  0.018011 -6.326721  0.729090
   scf:    2     -898.145742     -898.356752     -898.425887  0.068666 -5.860551  1.178622
   scf:    3     -898.491114     -898.450374     -898.519681  0.046988 -6.156840  0.476749
   scf:    4     -898.449732     -898.452957     -898.522135  0.031104 -5.949729  0.046222
   scf:    5     -898.454721     -898.454042     -898.523319  0.011937 -5.940278  0.041452
   scf:    6     -898.454327     -898.454446     -898.523761  0.013398 -5.943410  0.031047
   scf:    7     -898.454595     -898.454542     -898.523857  0.001950 -5.922320  0.004192
   scf:    8     -898.454544     -898.454544     -898.523859  0.000612 -5.923175  0.001613
   scf:    9     -898.454544     -898.454544     -898.523858  0.000388 -5.922450  0.000973
   scf:   10     -898.454544     -898.454544     -898.523858  0.000025 -5.922430  0.000724

SCF Convergence by DM+H criterion
max |DM_out - DM_in|         :     0.0000254656
max |H_out - H_in|      (eV) :     0.0007242005
SCF cycle converged after 10 iterations

Using DM_out to compute the final energy and forces
No. of atoms with KB's overlaping orbs in proc 0. Max # of overlaps:       4      26

siesta: E_KS(eV) =             -898.4545

siesta: Atomic forces (eV/Ang):
----------------------------------------
   Tot    0.000973   -0.000014   -0.000784
----------------------------------------
   Max    1.837598
   Res    0.836000    sqrt( Sum f_i^2 / 3N )
----------------------------------------
   Max    1.837598    constrained

Stress tensor Voigt[x,y,z,yz,xz,xy] (kbar):      -18.69       -0.37        0.13        0.13        0.62       -0.77
(Free)E + p*V (eV/cell)     -894.5860
Target enthalpy (eV/cell)     -898.5239

siesta: Stress tensor (static) (eV/Ang**3):
        -0.001228   -0.000092    0.000312
        -0.000092   -0.000001    0.000045
         0.000312    0.000045    0.000112

siesta: Pressure (static):          0.59678522  kBar

siesta: Stress tensor (total) (eV/Ang**3):
        -0.011665   -0.000478    0.000389
        -0.000478   -0.000229    0.000082
         0.000389    0.000082    0.000081

siesta: Pressure (total):          6.30915472  kBar

siesta: Temp_ion =   14160.173 K

                     ====================================
                        Begin MD step =      9
                     ====================================

outcell: Unit cell vectors (Ang):
       10.000004    0.000000    0.000000
        0.000000   10.000004    0.000000
        0.000000    0.000000   10.000004

outcell: Cell vector modules (Ang)   :   10.000004   10.000004   10.000004
outcell: Cell angles (23,13,12) (deg):     90.0000     90.0000     90.0000
outcell: Cell volume (Ang**3)        :   1000.0012
<dSpData1D:S at geom step 9
  <sparsity:sparsity for geom step 9
    nrows_g=26 nrows=26 sparsity=1.0000 nnzs=676, refcount: 7>
  <dData1D:(new from dSpData1D) n=676, refcount: 1>
refcount: 1>
new_DM -- step:     9
Re-using DM from previous geometries...
Number of DMs in history: 1
 DM extrapolation coefficients: 
1   1.00000
New DM after history re-use:
<dSpData2D:SpM extrapolated using coords
  <sparsity:sparsity for geom step 9
    nrows_g=26 nrows=26 sparsity=1.0000 nnzs=676, refcount: 9>
  <dData2D:(temp array for extrapolation) n=676 m=1, refcount: 1>
refcount: 1>
Note: For starting DM, Qtot, Tr[D*S] =         14.00000000         14.05981694
No. of atoms with KB's overlaping orbs in proc 0. Max # of overlaps:       4      26

InitMesh: MESH = 90 x 90 x 90 = 729000
InitMesh: Mesh cutoff (required, used) =   200.000   223.865 Ry
New grid distribution [1]: sub = 2

        iscf     Eharris(eV)        E_KS(eV)     FreeEng(eV)     dDmax    Ef(eV) dHmax(eV)
   scf:    1     -898.685238     -898.443485     -898.512795  0.021090 -6.440285  0.889360
   scf:    2     -897.801082     -898.249959     -898.318923  0.120385 -5.918178  1.719975
   scf:    3     -898.526060     -898.452851     -898.522156  0.089082 -6.281207  0.537619
   scf:    4     -898.448672     -898.454859     -898.523939  0.056592 -6.039286  0.100211
   scf:    5     -898.457420     -898.456356     -898.525565  0.014803 -6.026308  0.053502
   scf:    6     -898.457240     -898.457489     -898.526803  0.029076 -6.027303  0.041779
   scf:    7     -898.457687     -898.457619     -898.526932  0.003991 -6.002195  0.012600
   scf:    8     -898.457634     -898.457632     -898.526946  0.002110 -6.003013  0.001717
   scf:    9     -898.457632     -898.457632     -898.526946  0.000541 -6.002109  0.001117
   scf:   10     -898.457632     -898.457632     -898.526946  0.000141 -6.002290  0.000645

SCF Convergence by DM+H criterion
max |DM_out - DM_in|         :     0.0001405271
max |H_out - H_in|      (eV) :     0.0006447817
SCF cycle converged after 10 iterations

Using DM_out to compute the final energy and forces
No. of atoms with KB's overlaping orbs in proc 0. Max # of overlaps:       4      26

siesta: E_KS(eV) =             -898.4576

siesta: Atomic forces (eV/Ang):
----------------------------------------
   Tot   -0.001753   -0.000334    0.000056
----------------------------------------
   Max    1.475646
   Res    0.877767    sqrt( Sum f_i^2 / 3N )
----------------------------------------
   Max    1.475646    constrained

Stress tensor Voigt[x,y,z,yz,xz,xy] (kbar):      -21.61       -0.45       -0.31       -0.04       -0.57       -1.27
(Free)E + p*V (eV/cell)     -893.8726
Target enthalpy (eV/cell)     -898.5269

siesta: Stress tensor (static) (eV/Ang**3):
        -0.002754   -0.000361   -0.000418
        -0.000361   -0.000048   -0.000069
        -0.000418   -0.000069   -0.000179

siesta: Pressure (static):          1.59200272  kBar

siesta: Stress tensor (total) (eV/Ang**3):
        -0.013490   -0.000792   -0.000354
        -0.000792   -0.000280   -0.000026
        -0.000354   -0.000026   -0.000194

siesta: Pressure (total):          7.45706450  kBar

siesta: Temp_ion =   14153.439 K

                     ====================================
                        Begin MD step =     10
                     ====================================

outcell: Unit cell vectors (Ang):
       10.000004    0.000000    0.000000
        0.000000   10.000004    0.000000
        0.000000    0.000000   10.000004

outcell: Cell vector modules (Ang)   :   10.000004   10.000004   10.000004
outcell: Cell angles (23,13,12) (deg):     90.0000     90.0000     90.0000
outcell: Cell volume (Ang**3)        :   1000.0012
<dSpData1D:S at geom step 10
  <sparsity:sparsity for geom step 10
    nrows_g=26 nrows=26 sparsity=1.0000 nnzs=676, refcount: 7>
  <dData1D:(new from dSpData1D) n=676, refcount: 1>
refcount: 1>
new_DM -- step:    10
Re-using DM from previous geometries...
Number of DMs in history: 1
 DM extrapolation coefficients: 
1   1.00000
New DM after history re-use:
<dSpData2D:SpM extrapolated using coords
  <sparsity:sparsity for geom step 10
    nrows_g=26 nrows=26 sparsity=1.0000 nnzs=676, refcount: 9>
  <dData2D:(temp array for extrapolation) n=676 m=1, refcount: 1>
refcount: 1>
Note: For starting DM, Qtot, Tr[D*S] =         14.00000000         14.03953090
No. of atoms with KB's overlaping orbs in proc 0. Max # of overlaps:       4      26

InitMesh: MESH = 90 x 90 x 90 = 729000
InitMesh: Mesh cutoff (required, used) =   200.000   223.865 Ry
New grid distribution [1]: sub = 2

        iscf     Eharris(eV)        E_KS(eV)     FreeEng(eV)     dDmax    Ef(eV) dHmax(eV)
   scf:    1     -898.418012     -898.279585     -898.348892  0.023810 -6.325351  0.676318
   scf:    2     -897.474366     -898.034987     -898.103930  0.082041 -6.036921  1.832862
   scf:    3     -898.354998     -898.292325     -898.361638  0.064945 -6.262222  0.283665
   scf:    4     -898.287088     -898.291734     -898.360844  0.041041 -6.135886  0.070682
   scf:    5     -898.293338     -898.292637     -898.361826  0.008111 -6.123543  0.032272
   scf:    6     -898.293743     -898.293812     -898.363126  0.026846 -6.120877  0.028541
   scf:    7     -898.293877     -898.293854     -898.363166  0.001678 -6.104667  0.006520
   scf:    8     -898.293859     -898.293859     -898.363173  0.001570 -6.103625  0.001338
   scf:    9     -898.293859     -898.293859     -898.363173  0.000330 -6.102905  0.000626
   scf:   10     -898.293859     -898.293859     -898.363173  0.000093 -6.103050  0.000416

SCF Convergence by DM+H criterion
max |DM_out - DM_in|         :     0.0000928714
max |H_out - H_in|      (eV) :     0.0004159257
SCF cycle converged after 10 iterations

Using DM_out to compute the final energy and forces
No. of atoms with KB's overlaping orbs in proc 0. Max # of overlaps:       4      26

siesta: E_KS(eV) =             -898.2939

siesta: Atomic forces (eV/Ang):
----------------------------------------
   Tot    0.000397   -0.000430   -0.000876
----------------------------------------
   Max    3.627282
   Res    1.715967    sqrt( Sum f_i^2 / 3N )
----------------------------------------
   Max    3.627282    constrained

Stress tensor Voigt[x,y,z,yz,xz,xy] (kbar):      -23.17       -0.55       -0.98       -0.29       -1.75       -1.67
(Free)E + p*V (eV/cell)     -893.2247
Target enthalpy (eV/cell)     -898.3632

siesta: Stress tensor (static) (eV/Ang**3):
        -0.003742   -0.000589   -0.001169
        -0.000589   -0.000106   -0.000225
        -0.001169   -0.000225   -0.000591

siesta: Pressure (static):          2.37038002  kBar

siesta: Stress tensor (total) (eV/Ang**3):
        -0.014463   -0.001043   -0.001090
        -0.001043   -0.000343   -0.000182
        -0.001090   -0.000182   -0.000609

siesta: Pressure (total):          8.23265250  kBar

siesta: Temp_ion =   13810.877 K

                     ====================================
                        Begin MD step =     11
                     ====================================

outcell: Unit cell vectors (Ang):
       10.000004    0.000000    0.000000
        0.000000   10.000004    0.000000
        0.000000    0.000000   10.000004

outcell: Cell vector modules (Ang)   :   10.000004   10.000004   10.000004
outcell: Cell angles (23,13,12) (deg):     90.0000     90.0000     90.0000
outcell: Cell volume (Ang**3)        :   1000.0012
<dSpData1D:S at geom step 11
  <sparsity:sparsity for geom step 11
    nrows_g=26 nrows=26 sparsity=1.0000 nnzs=676, refcount: 7>
  <dData1D:(new from dSpData1D) n=676, refcount: 1>
refcount: 1>
new_DM -- step:    11
Re-using DM from previous geometries...
Number of DMs in history: 1
 DM extrapolation coefficients: 
1   1.00000
New DM after history re-use:
<dSpData2D:SpM extrapolated using coords
  <sparsity:sparsity for geom step 11
    nrows_g=26 nrows=26 sparsity=1.0000 nnzs=676, refcount: 9>
  <dData2D:(temp array for extrapolation) n=676 m=1, refcount: 1>
refcount: 1>
No. of atoms with KB's overlaping orbs in proc 0. Max # of overlaps:       4      26

InitMesh: MESH = 90 x 90 x 90 = 729000
InitMesh: Mesh cutoff (required, used) =   200.000   223.865 Ry
New grid distribution [1]: sub = 2

        iscf     Eharris(eV)        E_KS(eV)     FreeEng(eV)     dDmax    Ef(eV) dHmax(eV)
   scf:    1     -898.271256     -898.328912     -898.398071  0.052042 -6.114532  0.471320
   scf:    2     -897.238307     -897.991853     -898.048605  0.350267 -6.243155  1.625599
   scf:    3     -898.398320     -898.338184     -898.407433  0.295386 -6.142167  0.114375
   scf:    4     -898.325555     -898.336294     -898.405232  0.073991 -6.166460  0.085523
   scf:    5     -898.340732     -898.339263     -898.408512  0.030290 -6.163970  0.104294
   scf:    6     -898.339180     -898.339787     -898.409100  0.024616 -6.237728  0.016982
   scf:    7     -898.339159     -898.339768     -898.409046  0.019044 -6.231683  0.016182
   scf:    8     -898.339924     -898.339944     -898.409255  0.010936 -6.241707  0.000647
   scf:    9     -898.339945     -898.339945     -898.409255  0.000417 -6.241529  0.000596
   scf:   10     -898.339944     -898.339945     -898.409255  0.000230 -6.241665  0.000487

SCF Convergence by DM+H criterion
max |DM_out - DM_in|         :     0.0002303517
max |H_out - H_in|      (eV) :     0.0004865110
SCF cycle converged after 10 iterations

Using DM_out to compute the final energy and forces
No. of atoms with KB's overlaping orbs in proc 0. Max # of overlaps:       4      26

siesta: E_KS(eV) =             -898.3399

siesta: Atomic forces (eV/Ang):
----------------------------------------
   Tot    0.002125   -0.000424    0.000451
----------------------------------------
   Max    2.793495
   Res    1.301552    sqrt( Sum f_i^2 / 3N )
----------------------------------------
   Max    2.793495    constrained

Stress tensor Voigt[x,y,z,yz,xz,xy] (kbar):      -21.49       -0.57       -1.09       -0.33       -1.46       -1.42
(Free)E + p*V (eV/cell)     -893.5935
Target enthalpy (eV/cell)     -898.4093

siesta: Stress tensor (static) (eV/Ang**3):
        -0.003026   -0.000426   -0.001012
        -0.000426   -0.000106   -0.000229
        -0.001012   -0.000229   -0.000605

siesta: Pressure (static):          1.99537174  kBar

siesta: Stress tensor (total) (eV/Ang**3):
        -0.013412   -0.000887   -0.000909
        -0.000887   -0.000354   -0.000205
        -0.000909   -0.000205   -0.000681

siesta: Pressure (total):          7.71575709  kBar

siesta: Temp_ion =   13876.184 K

                     ====================================
                        Begin MD step =     12
                     ====================================

outcell: Unit cell vectors (Ang):
       10.000004    0.000000    0.000000
        0.000000   10.000004    0.000000
        0.000000    0.000000   10.000004

outcell: Cell vector modules (Ang)   :   10.000004   10.000004   10.000004
outcell: Cell angles (23,13,12) (deg):     90.0000     90.0000     90.0000
outcell: Cell volume (Ang**3)        :   1000.0012
<dSpData1D:S at geom step 12
  <sparsity:sparsity for geom step 12
    nrows_g=26 nrows=26 sparsity=1.0000 nnzs=676, refcount: 7>
  <dData1D:(new from dSpData1D) n=676, refcount: 1>
refcount: 1>
new_DM -- step:    12
Re-using DM from previous geometries...
Number of DMs in history: 1
 DM extrapolation coefficients: 
1   1.00000
New DM after history re-use:
<dSpData2D:SpM extrapolated using coords
  <sparsity:sparsity for geom step 12
    nrows_g=26 nrows=26 sparsity=1.0000 nnzs=676, refcount: 9>
  <dData2D:(temp array for extrapolation) n=676 m=1, refcount: 1>
refcount: 1>
Note: For starting DM, Qtot, Tr[D*S] =         14.00000000         13.97467632
No. of atoms with KB's overlaping orbs in proc 0. Max # of overlaps:       4      26

InitMesh: MESH = 90 x 90 x 90 = 729000
InitMesh: Mesh cutoff (required, used) =   200.000   223.865 Ry
New grid distribution [1]: sub = 2

        iscf     Eharris(eV)        E_KS(eV)     FreeEng(eV)     dDmax    Ef(eV) dHmax(eV)
   scf:    1     -897.983771     -898.347792     -898.415816  0.088252 -6.025660  0.765531
   scf:    2     -896.419382     -897.765334     -897.782124  0.669900 -6.566680  1.365388
   scf:    3     -898.567633     -898.295842     -898.359907  0.382262 -6.201972  0.482868
   scf:    4     -898.213865     -898.256956     -898.317789  0.051381 -6.206009  0.515673
   scf:    5     -897.091323     -898.059567     -898.096712  0.694894 -6.465761  0.537914
   scf:    6     -898.233357     -898.150330     -898.197611  0.070222 -6.420107  0.448184
   scf:    7     -897.820373     -898.278708     -898.340975  0.601122 -6.429197  0.281474
   scf:    8     -898.331528     -898.306383     -898.370987  0.039592 -6.430423  0.233507
   scf:    9     -898.353215     -898.331399     -898.398046  0.044445 -6.432302  0.179798
   scf:   10     -898.376586     -898.358103     -898.426804  0.070962 -6.436285  0.094915
   scf:   11     -898.363033     -898.368031     -898.437221  0.095713 -6.437420  0.020439
   scf:   12     -898.353812     -898.364435     -898.433568  0.065665 -6.438171  0.058689
   scf:   13     -898.369485     -898.368329     -898.437640  0.040991 -6.439658  0.009348
   scf:   14     -898.368476     -898.368449     -898.437741  0.007534 -6.442378  0.000760
   scf:   15     -898.368450     -898.368449     -898.437741  0.000269 -6.441787  0.000719

SCF Convergence by DM+H criterion
max |DM_out - DM_in|         :     0.0002693611
max |H_out - H_in|      (eV) :     0.0007193920
SCF cycle converged after 15 iterations

Using DM_out to compute the final energy and forces
No. of atoms with KB's overlaping orbs in proc 0. Max # of overlaps:       4      26

siesta: E_KS(eV) =             -898.3684

siesta: Atomic forces (eV/Ang):
----------------------------------------
   Tot   -0.002343   -0.000177   -0.001280
----------------------------------------
   Max    0.624797
   Res    0.270824    sqrt( Sum f_i^2 / 3N )
----------------------------------------
   Max    0.624797    constrained

Stress tensor Voigt[x,y,z,yz,xz,xy] (kbar):      -19.52       -0.52       -0.51       -0.12       -0.18       -0.71
(Free)E + p*V (eV/cell)     -894.1611
Target enthalpy (eV/cell)     -898.4377

siesta: Stress tensor (static) (eV/Ang**3):
        -0.001952    0.000078   -0.000076
         0.000078   -0.000048   -0.000039
        -0.000076   -0.000039   -0.000068

siesta: Pressure (static):          1.10450578  kBar

siesta: Stress tensor (total) (eV/Ang**3):
        -0.012186   -0.000443   -0.000109
        -0.000443   -0.000323   -0.000077
        -0.000109   -0.000077   -0.000321

siesta: Pressure (total):          6.85194098  kBar

siesta: Temp_ion =   13890.799 K

                     ====================================
                        Begin MD step =     13
                     ====================================

outcell: Unit cell vectors (Ang):
       10.000004    0.000000    0.000000
        0.000000   10.000004    0.000000
        0.000000    0.000000   10.000004

outcell: Cell vector modules (Ang)   :   10.000004   10.000004   10.000004
outcell: Cell angles (23,13,12) (deg):     90.0000     90.0000     90.0000
outcell: Cell volume (Ang**3)        :   1000.0012
<dSpData1D:S at geom step 13
  <sparsity:sparsity for geom step 13
    nrows_g=26 nrows=26 sparsity=1.0000 nnzs=676, refcount: 7>
  <dData1D:(new from dSpData1D) n=676, refcount: 1>
refcount: 1>
new_DM -- step:    13
Re-using DM from previous geometries...
Number of DMs in history: 1
 DM extrapolation coefficients: 
1   1.00000
New DM after history re-use:
<dSpData2D:SpM extrapolated using coords
  <sparsity:sparsity for geom step 13
    nrows_g=26 nrows=26 sparsity=1.0000 nnzs=676, refcount: 9>
  <dData2D:(temp array for extrapolation) n=676 m=1, refcount: 1>
refcount: 1>
Note: For starting DM, Qtot, Tr[D*S] =         14.00000000         13.96045434
No. of atoms with KB's overlaping orbs in proc 0. Max # of overlaps:       4      26

InitMesh: MESH = 90 x 90 x 90 = 729000
InitMesh: Mesh cutoff (required, used) =   200.000   223.865 Ry
New grid distribution [1]: sub = 2

        iscf     Eharris(eV)        E_KS(eV)     FreeEng(eV)     dDmax    Ef(eV) dHmax(eV)
   scf:    1     -897.144384     -897.967829     -898.029961  0.197713 -6.181600  0.895576
   scf:    2     -895.714249     -897.386293     -897.386932  0.791436 -6.979822  1.134873
   scf:    3     -897.710070     -897.558060     -897.581906  0.073791 -6.551505  0.663652
   scf:    4     -897.323926     -897.444135     -897.451715  0.057734 -6.657018  0.768463
   scf:    5     -898.186760     -897.882998     -897.940142  0.281988 -6.653775  0.374226
   scf:    6     -898.082523     -898.045271     -898.114551  0.270060 -6.665383  0.047225
   scf:    7     -897.989485     -898.023010     -898.091123  0.079865 -6.644100  0.143821
   scf:    8     -897.928343     -898.024415     -898.090296  0.240054 -6.676977  0.146472
   scf:    9     -897.900631     -897.970313     -898.030229  0.096151 -6.664614  0.263411
   scf:   10     -898.055247     -898.018425     -898.083605  0.082689 -6.662205  0.163029
   scf:   11     -898.033030     -898.047122     -898.116414  0.158656 -6.670700  0.028402
   scf:   12     -898.047102     -898.048152     -898.117197  0.035096 -6.670732  0.013909
   scf:   13     -898.048317     -898.048253     -898.117353  0.004544 -6.671108  0.008439
   scf:   14     -898.048208     -898.048233     -898.117314  0.001466 -6.671287  0.009739
   scf:   15     -898.048296     -898.048286     -898.117420  0.005035 -6.672054  0.003623
   scf:   16     -898.048244     -898.048274     -898.117439  0.003240 -6.672663  0.002356
   scf:   17     -898.048275     -898.048275     -898.117440  0.000417 -6.673408  0.000748
   scf:   18     -898.048274     -898.048274     -898.117440  0.000037 -6.673438  0.000684

SCF Convergence by DM+H criterion
max |DM_out - DM_in|         :     0.0000374415
max |H_out - H_in|      (eV) :     0.0006844959
SCF cycle converged after 18 iterations

Using DM_out to compute the final energy and forces
No. of atoms with KB's overlaping orbs in proc 0. Max # of overlaps:       4      26

siesta: E_KS(eV) =             -898.0483

siesta: Atomic forces (eV/Ang):
----------------------------------------
   Tot   -0.002477   -0.000226   -0.000013
----------------------------------------
   Max    2.244856
   Res    0.917804    sqrt( Sum f_i^2 / 3N )
----------------------------------------
   Max    2.244856    constrained

Stress tensor Voigt[x,y,z,yz,xz,xy] (kbar):      -19.56       -0.55        0.18        0.09        0.93        0.01
(Free)E + p*V (eV/cell)     -893.9705
Target enthalpy (eV/cell)     -898.1174

siesta: Stress tensor (static) (eV/Ang**3):
        -0.002123    0.000587    0.000753
         0.000587   -0.000046    0.000147
         0.000753    0.000147    0.000501

siesta: Pressure (static):          0.89071350  kBar

siesta: Stress tensor (total) (eV/Ang**3):
        -0.012210    0.000003    0.000584
         0.000004   -0.000346    0.000058
         0.000584    0.000058    0.000115

siesta: Pressure (total):          6.64420211  kBar

siesta: Temp_ion =   13092.247 K

                     ====================================
                        Begin MD step =     14
                     ====================================

outcell: Unit cell vectors (Ang):
       10.000004    0.000000    0.000000
        0.000000   10.000004    0.000000
        0.000000    0.000000   10.000004

outcell: Cell vector modules (Ang)   :   10.000004   10.000004   10.000004
outcell: Cell angles (23,13,12) (deg):     90.0000     90.0000     90.0000
outcell: Cell volume (Ang**3)        :   1000.0012
<dSpData1D:S at geom step 14
  <sparsity:sparsity for geom step 14
    nrows_g=26 nrows=26 sparsity=1.0000 nnzs=676, refcount: 7>
  <dData1D:(new from dSpData1D) n=676, refcount: 1>
refcount: 1>
new_DM -- step:    14
Re-using DM from previous geometries...
Number of DMs in history: 1
 DM extrapolation coefficients: 
1   1.00000
New DM after history re-use:
<dSpData2D:SpM extrapolated using coords
  <sparsity:sparsity for geom step 14
    nrows_g=26 nrows=26 sparsity=1.0000 nnzs=676, refcount: 9>
  <dData2D:(temp array for extrapolation) n=676 m=1, refcount: 1>
refcount: 1>
Note: For starting DM, Qtot, Tr[D*S] =         14.00000000         13.96393564
No. of atoms with KB's overlaping orbs in proc 0. Max # of overlaps:       4      26

InitMesh: MESH = 90 x 90 x 90 = 729000
InitMesh: Mesh cutoff (required, used) =   200.000   223.865 Ry
New grid distribution [1]: sub = 2

        iscf     Eharris(eV)        E_KS(eV)     FreeEng(eV)     dDmax    Ef(eV) dHmax(eV)
   scf:    1     -896.035898     -897.319444     -897.361674  0.302306 -6.535733  0.750461
   scf:    2     -894.460031     -896.706858     -896.706874  0.838288 -7.051552  1.559694
   scf:    3     -897.039642     -896.886949     -896.906663  0.057839 -6.726930  0.868339
   scf:    4     -896.663250     -896.777629     -896.781962  0.039237 -6.792869  0.860782
   scf:    5     -896.928533     -896.854312     -896.869116  0.027886 -6.774989  0.746762
   scf:    6     -897.102347     -896.981894     -897.011569  0.054339 -6.787668  0.598686
   scf:    7     -897.233145     -897.112037     -897.154769  0.065935 -6.785657  0.511652
   scf:    8     -897.225392     -897.478646     -897.540763  0.537716 -6.790208  0.177499
   scf:    9     -897.498287     -897.504609     -897.572804  0.132010 -6.769256  0.039931
   scf:   10     -897.194002     -897.397523     -897.462278  0.215296 -6.769392  0.277657
   scf:   11     -897.510339     -897.460872     -897.529013  0.080584 -6.770048  0.180171
   scf:   12     -897.430280     -897.446211     -897.513798  0.023970 -6.773705  0.201039
   scf:   13     -897.391873     -897.488341     -897.551953  0.260566 -6.777446  0.114983
   scf:   14     -897.503589     -897.505184     -897.573269  0.095241 -6.776358  0.010267
   scf:   15     -897.505116     -897.505162     -897.573293  0.002666 -6.779546  0.009431
   scf:   16     -897.505167     -897.505166     -897.573300  0.000886 -6.779592  0.006308
   scf:   17     -897.505206     -897.505187     -897.573296  0.001173 -6.779368  0.005573
   scf:   18     -897.505159     -897.505175     -897.573309  0.000860 -6.777653  0.003674
   scf:   19     -897.505137     -897.505157     -897.573313  0.000683 -6.777692  0.001366
   scf:   20     -897.505158     -897.505157     -897.573313  0.000127 -6.777596  0.001192
   scf:   21     -897.505161     -897.505159     -897.573313  0.000135 -6.777542  0.001217
   scf:   22     -897.505154     -897.505157     -897.573313  0.000097 -6.777520  0.001178
   scf:   23     -897.505125     -897.505141     -897.573314  0.000504 -6.777206  0.000579
   scf:   24     -897.505145     -897.505143     -897.573314  0.000176 -6.777172  0.000541

SCF Convergence by DM+H criterion
max |DM_out - DM_in|         :     0.0001755187
max |H_out - H_in|      (eV) :     0.0005405324
SCF cycle converged after 24 iterations

Using DM_out to compute the final energy and forces
No. of atoms with KB's overlaping orbs in proc 0. Max # of overlaps:       4      26

siesta: E_KS(eV) =             -897.5051

siesta: Atomic forces (eV/Ang):
----------------------------------------
   Tot   -0.001393    0.000947    0.000622
----------------------------------------
   Max    3.150882
   Res    1.338650    sqrt( Sum f_i^2 / 3N )
----------------------------------------
   Max    3.150882    constrained

Stress tensor Voigt[x,y,z,yz,xz,xy] (kbar):      -21.11       -0.86        0.61        0.18        1.50        0.51
(Free)E + p*V (eV/cell)     -893.1275
Target enthalpy (eV/cell)     -897.5733

siesta: Stress tensor (static) (eV/Ang**3):
        -0.003658    0.000913    0.001060
         0.000913   -0.000231    0.000183
         0.001060    0.000183    0.000706

siesta: Pressure (static):          1.70016605  kBar

siesta: Stress tensor (total) (eV/Ang**3):
        -0.013176    0.000321    0.000939
         0.000321   -0.000540    0.000109
         0.000939    0.000109    0.000379

siesta: Pressure (total):          7.12289879  kBar

siesta: Temp_ion =   11720.910 K

                     ====================================
                        Begin MD step =     15
                     ====================================

outcell: Unit cell vectors (Ang):
       10.000004    0.000000    0.000000
        0.000000   10.000004    0.000000
        0.000000    0.000000   10.000004

outcell: Cell vector modules (Ang)   :   10.000004   10.000004   10.000004
outcell: Cell angles (23,13,12) (deg):     90.0000     90.0000     90.0000
outcell: Cell volume (Ang**3)        :   1000.0012
<dSpData1D:S at geom step 15
  <sparsity:sparsity for geom step 15
    nrows_g=26 nrows=26 sparsity=1.0000 nnzs=676, refcount: 7>
  <dData1D:(new from dSpData1D) n=676, refcount: 1>
refcount: 1>
new_DM -- step:    15
Re-using DM from previous geometries...
Number of DMs in history: 1
 DM extrapolation coefficients: 
1   1.00000
New DM after history re-use:
<dSpData2D:SpM extrapolated using coords
  <sparsity:sparsity for geom step 15
    nrows_g=26 nrows=26 sparsity=1.0000 nnzs=676, refcount: 9>
  <dData2D:(temp array for extrapolation) n=676 m=1, refcount: 1>
refcount: 1>
Note: For starting DM, Qtot, Tr[D*S] =         14.00000000         13.97551808
No. of atoms with KB's overlaping orbs in proc 0. Max # of overlaps:       4      26

InitMesh: MESH = 90 x 90 x 90 = 729000
InitMesh: Mesh cutoff (required, used) =   200.000   223.865 Ry
New grid distribution [1]: sub = 2

        iscf     Eharris(eV)        E_KS(eV)     FreeEng(eV)     dDmax    Ef(eV) dHmax(eV)
   scf:    1     -894.280433     -896.398753     -896.404891  0.430115 -6.770585  2.835521
   scf:    2     -880.983292     -892.154645     -892.154648  1.412336 -4.993045 10.808960
   scf:    3     -898.182140     -896.086750     -896.131422  0.544205 -6.429541  3.739459
   scf:    4     -895.895391     -896.735531     -896.756850  0.850509 -6.676424  1.131921
   scf:    5     -896.830379     -896.787703     -896.815652  0.047227 -6.654169  0.691569
   scf:    6     -894.095605     -896.158376     -896.195650  0.741305 -6.637764  1.834744
   scf:    7     -896.569371     -896.376969     -896.425591  0.109761 -6.654953  1.276195
   scf:    8     -895.896734     -896.576743     -896.620888  0.575382 -6.742520  2.101838
   scf:    9     -895.689806     -896.470400     -896.521863  0.487387 -6.661828  0.871323
   scf:   10     -895.167132     -895.950380     -895.980559  0.375383 -6.606485  2.611021
   scf:   11     -897.001092     -896.621858     -896.687541  0.374196 -6.550298  1.927721
   scf:   12     -896.565670     -896.612076     -896.678910  0.140285 -6.533603  1.821971
   scf:   13     -896.158907     -896.411360     -896.470971  0.177257 -6.535396  2.399996
   scf:   14     -896.503611     -896.702116     -896.766906  0.353036 -6.781285  0.902863
   scf:   15     -896.706831     -896.705410     -896.770199  0.018367 -6.768859  0.782384
   scf:   16     -896.693425     -896.865625     -896.925866  0.373914 -6.567961  0.891926
   scf:   17     -896.911556     -896.913244     -896.976559  0.085491 -6.677237  0.076103
   scf:   18     -896.911549     -896.912821     -896.976377  0.007175 -6.663098  0.097446
   scf:   19     -896.910019     -896.911516     -896.975370  0.009479 -6.661510  0.140886
   scf:   20     -896.909441     -896.910606     -896.974723  0.006522 -6.658033  0.200655
   scf:   21     -896.913087     -896.912051     -896.975503  0.012647 -6.658557  0.150716
   scf:   22     -896.915454     -896.914519     -896.977213  0.027366 -6.662882  0.027871
   scf:   23     -896.914711     -896.914627     -896.977213  0.002834 -6.664118  0.020994
   scf:   24     -896.914890     -896.914799     -896.977279  0.006403 -6.669102  0.004013
   scf:   25     -896.914626     -896.914714     -896.977288  0.001375 -6.669619  0.003400
   scf:   26     -896.914551     -896.914634     -896.977293  0.001100 -6.669853  0.003593
   scf:   27     -896.914616     -896.914625     -896.977295  0.000361 -6.669735  0.003893
   scf:   28     -896.914641     -896.914633     -896.977299  0.000392 -6.669343  0.002513
   scf:   29     -896.914616     -896.914625     -896.977301  0.000425 -6.669239  0.002670
   scf:   30     -896.914633     -896.914629     -896.977302  0.000358 -6.669191  0.002360
   scf:   31     -896.914637     -896.914633     -896.977302  0.000155 -6.669189  0.002051
   scf:   32     -896.914583     -896.914608     -896.977302  0.000481 -6.669255  0.001341
   scf:   33     -896.914602     -896.914605     -896.977302  0.000103 -6.669246  0.001124
   scf:   34     -896.914628     -896.914617     -896.977302  0.000222 -6.669164  0.000934

SCF Convergence by DM+H criterion
max |DM_out - DM_in|         :     0.0002216140
max |H_out - H_in|      (eV) :     0.0009340365
SCF cycle converged after 34 iterations

Using DM_out to compute the final energy and forces
No. of atoms with KB's overlaping orbs in proc 0. Max # of overlaps:       4      26

siesta: E_KS(eV) =             -896.9146

siesta: Atomic forces (eV/Ang):
----------------------------------------
   Tot   -0.000517    0.001681    0.000586
----------------------------------------
   Max    3.052593
   Res    1.595668    sqrt( Sum f_i^2 / 3N )
----------------------------------------
   Max    3.052593    constrained

Stress tensor Voigt[x,y,z,yz,xz,xy] (kbar):      -22.65       -1.62        0.26        0.00        1.18        0.56
(Free)E + p*V (eV/cell)     -891.9823
Target enthalpy (eV/cell)     -896.9773

siesta: Stress tensor (static) (eV/Ang**3):
        -0.005571    0.000978    0.000770
         0.000978   -0.000677    0.000039
         0.000770    0.000038    0.000354

siesta: Pressure (static):          3.14820857  kBar

siesta: Stress tensor (total) (eV/Ang**3):
        -0.014138    0.000349    0.000737
         0.000349   -0.001012    0.000003
         0.000737    0.000003    0.000164

siesta: Pressure (total):          8.00294167  kBar

siesta: Temp_ion =   10210.472 K

                     ====================================
                        Begin MD step =     16
                     ====================================

outcell: Unit cell vectors (Ang):
       10.000004    0.000000    0.000000
        0.000000   10.000004    0.000000
        0.000000    0.000000   10.000004

outcell: Cell vector modules (Ang)   :   10.000004   10.000004   10.000004
outcell: Cell angles (23,13,12) (deg):     90.0000     90.0000     90.0000
outcell: Cell volume (Ang**3)        :   1000.0012
<dSpData1D:S at geom step 16
  <sparsity:sparsity for geom step 16
[...]
   scf:  117     -895.499405     -895.499426     -895.576492  0.000305 -7.010310  0.004355
   scf:  118     -895.499283     -895.499356     -895.576495  0.000910 -7.010246  0.003461
   scf:  119     -895.499439     -895.499398     -895.576495  0.000380 -7.010408  0.003338
   scf:  120     -895.499437     -895.499418     -895.576496  0.000261 -7.010496  0.003168
   scf:  121     -895.499447     -895.499433     -895.576496  0.000698 -7.010750  0.002910
   scf:  122     -895.499380     -895.499406     -895.576496  0.000227 -7.010980  0.002368
   scf:  123     -895.499398     -895.499402     -895.576496  0.000120 -7.010967  0.002014
   scf:  124     -895.499434     -895.499418     -895.576496  0.000184 -7.010879  0.001406
   scf:  125     -895.499473     -895.499445     -895.576496  0.000318 -7.010925  0.001296
   scf:  126     -895.499491     -895.499468     -895.576496  0.000190 -7.011119  0.002060
   scf:  127     -895.499424     -895.499447     -895.576496  0.000342 -7.011037  0.002575
   scf:  128     -895.499492     -895.499470     -895.576496  0.000234 -7.011179  0.003328
   scf:  129     -895.499475     -895.499472     -895.576496  0.000029 -7.011145  0.003216
   scf:  130     -895.499454     -895.499463     -895.576496  0.000241 -7.010872  0.001891
   scf:  131     -895.499480     -895.499471     -895.576496  0.000086 -7.010920  0.001810
   scf:  132     -895.499451     -895.499461     -895.576496  0.000117 -7.010896  0.001575
   scf:  133     -895.499457     -895.499459     -895.576496  0.000043 -7.010777  0.001412
   scf:  134     -895.499376     -895.499418     -895.576496  0.000521 -7.010719  0.001500
   scf:  135     -895.499413     -895.499416     -895.576496  0.000069 -7.010643  0.001315
   scf:  136     -895.499444     -895.499430     -895.576496  0.000582 -7.010627  0.000931
   scf:  137     -895.499440     -895.499435     -895.576496  0.000083 -7.010687  0.000936

SCF Convergence by DM+H criterion
max |DM_out - DM_in|         :     0.0000828845
max |H_out - H_in|      (eV) :     0.0009356030
SCF cycle converged after 137 iterations

Using DM_out to compute the final energy and forces
No. of atoms with KB's overlaping orbs in proc 0. Max # of overlaps:       4      26

siesta: E_KS(eV) =             -895.4994

siesta: Atomic forces (eV/Ang):
----------------------------------------
   Tot   -0.004558    0.001126   -0.000920
----------------------------------------
   Max    3.066808
   Res    1.654450    sqrt( Sum f_i^2 / 3N )
----------------------------------------
   Max    3.066808    constrained

Stress tensor Voigt[x,y,z,yz,xz,xy] (kbar):        4.15        0.17        4.56       -1.83       -4.65        2.56
(Free)E + p*V (eV/cell)     -897.4233
Target enthalpy (eV/cell)     -895.5765

siesta: Stress tensor (static) (eV/Ang**3):
         0.004150    0.002697   -0.002322
         0.002697    0.002680   -0.000722
        -0.002322   -0.000722    0.003531

siesta: Pressure (static):         -5.53332856  kBar

siesta: Stress tensor (total) (eV/Ang**3):
         0.002593    0.001599   -0.002901
         0.001599    0.000104   -0.001144
        -0.002901   -0.001144    0.002843

siesta: Pressure (total):         -2.95885832  kBar

siesta: Temp_ion =    6791.331 K

                     ====================================
                        Begin MD step =    100
                     ====================================

outcell: Unit cell vectors (Ang):
       10.000004    0.000000    0.000000
        0.000000   10.000004    0.000000
        0.000000    0.000000   10.000004

outcell: Cell vector modules (Ang)   :   10.000004   10.000004   10.000004
outcell: Cell angles (23,13,12) (deg):     90.0000     90.0000     90.0000
outcell: Cell volume (Ang**3)        :   1000.0012
<dSpData1D:S at geom step 100
  <sparsity:sparsity for geom step 100
    nrows_g=26 nrows=26 sparsity=1.0000 nnzs=676, refcount: 7>
  <dData1D:(new from dSpData1D) n=676, refcount: 1>
refcount: 1>
new_DM -- step:   100
Re-using DM from previous geometries...
Number of DMs in history: 1
 DM extrapolation coefficients: 
1   1.00000
New DM after history re-use:
<dSpData2D:SpM extrapolated using coords
  <sparsity:sparsity for geom step 100
    nrows_g=26 nrows=26 sparsity=1.0000 nnzs=676, refcount: 9>
  <dData2D:(temp array for extrapolation) n=676 m=1, refcount: 1>
refcount: 1>
Note: For starting DM, Qtot, Tr[D*S] =         14.00000000         14.08213703
No. of atoms with KB's overlaping orbs in proc 0. Max # of overlaps:       4      26

InitMesh: MESH = 90 x 90 x 90 = 729000
InitMesh: Mesh cutoff (required, used) =   200.000   223.865 Ry
New grid distribution [1]: sub = 2

        iscf     Eharris(eV)        E_KS(eV)     FreeEng(eV)     dDmax    Ef(eV) dHmax(eV)
   scf:    1     -881.410311     -890.879931     -890.946329  0.405124 -7.526713  9.510083
   scf:    2     -335.291044     -716.405607     -716.405607  2.021406  0.439989 65.762171
   scf:    3     -961.718141     -884.020867     -884.047903  2.042807 -6.449058 14.480783
   scf:    4     -886.172398     -885.112699     -885.143593  0.039557 -6.689323 13.762854
   scf:    5     -885.269860     -885.191363     -885.222639  0.002762 -6.706651 13.707499
   scf:    6     -896.905913     -892.069624     -892.138700  0.556448 -7.319492  7.855292
   scf:    7     -882.203752     -887.632177     -887.685802  0.399366 -7.117666 11.753866
   scf:    8     -777.486232     -865.337696     -865.338885  1.254480 -7.304861 24.123526
   scf:    9     -857.555977     -861.682698     -861.682724  0.277858 -6.708891 24.179663
   scf:   10     -844.833168     -853.499561     -853.499561  0.110783 -6.313497 27.124201
   scf:   11     -867.719030     -860.782629     -860.782643  0.090530 -6.537757 24.424177
   scf:   12     -856.998428     -858.995203     -858.995203  0.146935 -6.657454 26.355205
   scf:   13     -893.293193     -895.029621     -895.034591  1.051295 -7.117654  0.758631
   scf:   14     -780.406020     -857.245694     -857.245694  1.064363 -6.553789 27.467564
   scf:   15     -862.590173     -859.951270     -859.951270  0.058415 -6.707214 26.451818
   scf:   16     -863.301850     -861.637228     -861.637232  0.027074 -6.779510 25.485545
   scf:   17     -865.283159     -863.474025     -863.474047  0.027807 -6.867359 24.438905
   scf:   18     -864.201268     -863.839927     -863.839973  0.021554 -6.856417 24.074008
   scf:   19     -829.556501     -884.529858     -884.532908  1.229363 -5.432632 14.358117
   scf:   20     -873.427595     -880.216980     -880.220693  1.194878 -4.640269 18.176168
   scf:   21     -888.807276     -885.033848     -885.077713  0.568977 -5.831028 14.155287
   scf:   22     -886.957591     -886.183625     -886.220853  0.464180 -6.234569 12.533643
   scf:   23     -887.003471     -886.644971     -886.652150  0.274168 -6.424074 11.906459
   scf:   24     -886.851104     -886.754630     -886.757636  0.075045 -6.701274 11.455480
   scf:   25     -693.126300     -840.227423     -840.227423  1.276815 -4.968344 33.817337
   scf:   26     -838.336883     -887.829599     -887.836514  1.269666 -6.679108 10.886458
   scf:   27     -888.281537     -888.058752     -888.061899  0.047630 -6.879616 10.493138
   scf:   28     -893.689821     -894.959328     -894.960030  1.111849 -6.960827  1.060289
   scf:   29     -873.865755     -888.383738     -888.398988  0.563987 -7.161253 10.700002
   scf:   30     -885.666590     -893.928995     -893.954676  0.625691 -7.028959  4.557671
   scf:   31     -829.360471     -876.379939     -876.392301  0.892180 -7.155644 17.944218
   scf:   32     -853.739061     -888.457981     -888.478694  0.978049 -7.127128 10.167384
   scf:   33     -834.124865     -881.162774     -881.168980  0.977909 -7.089704 15.339134
   scf:   34     -898.534672     -894.688348     -894.691418  0.563006 -7.018047  3.027310
   scf:   35     -895.270735     -895.046063     -895.054255  0.049845 -7.148555  1.430361
   scf:   36     -895.039184     -895.064657     -895.066490  0.067796 -7.011933  0.875471
   scf:   37     -893.253517     -894.433834     -894.436976  0.127725 -7.005655  3.726666
   scf:   38     -893.486618     -893.986494     -893.987766  0.044067 -6.854601  4.826129
   scf:   39     -864.403529     -887.051039     -887.051039  1.112434 -7.034099 11.389148
   scf:   40     -878.414061     -892.841500     -892.852201  1.024301 -7.038901  6.325373
   scf:   41     -893.428456     -893.143289     -893.150391  0.051348 -6.993053  6.007680
   scf:   42     -892.572964     -892.872100     -892.894294  0.093522 -7.094531  6.262585
   scf:   43     -894.644183     -893.840642     -893.851261  0.137265 -7.066591  4.878720
   scf:   44     -895.498114     -895.361137     -895.439640  0.416454 -7.173893  0.769242
   scf:   45     -889.067457     -893.393151     -893.459553  0.337701 -7.175719  5.297843
   scf:   46     -890.139934     -891.868985     -891.921912  0.111529 -7.176522  7.026566
   scf:   47     -890.068848     -894.710746     -894.761392  0.743162 -7.174265  3.230169
   scf:   48     -895.654434     -895.315635     -895.381557  0.152975 -7.177447  1.298682
   scf:   49     -895.438470     -895.424751     -895.494880  0.074242 -7.179511  0.155031
   scf:   50     -895.039376     -895.301514     -895.375501  0.098094 -7.182092  1.409725
   scf:   51     -895.395453     -895.422416     -895.493945  0.098326 -7.186981  0.224741
   scf:   52     -895.373140     -895.409301     -895.483809  0.056766 -7.187181  0.485993
   scf:   53     -894.926310     -895.287010     -895.351285  0.152118 -7.178093  1.455476
   scf:   54     -895.420059     -895.425973     -895.497742  0.110842 -7.198869  0.078604
   scf:   55     -895.410839     -895.421382     -895.493334  0.025732 -7.200556  0.302204
   scf:   56     -895.421555     -895.425121     -895.498908  0.025036 -7.201063  0.070292
   scf:   57     -895.425350     -895.425702     -895.499427  0.011583 -7.198130  0.082141
   scf:   58     -895.419230     -895.424260     -895.498982  0.017919 -7.201273  0.171319
   scf:   59     -895.422368     -895.425505     -895.499867  0.016563 -7.199023  0.116435
   scf:   60     -895.424747     -895.425545     -895.500686  0.008637 -7.200550  0.030920
   scf:   61     -895.425519     -895.425781     -895.500916  0.012259 -7.205367  0.074368
   scf:   62     -895.425895     -895.425893     -895.501046  0.001921 -7.205900  0.036025
   scf:   63     -895.426310     -895.426121     -895.501019  0.005097 -7.211999  0.023748
   scf:   64     -895.426106     -895.426116     -895.501050  0.001954 -7.213361  0.025997
   scf:   65     -895.425217     -895.425719     -895.501134  0.007590 -7.216197  0.016436
   scf:   66     -895.425416     -895.425575     -895.501147  0.002177 -7.216724  0.008851
   scf:   67     -895.425653     -895.425624     -895.501150  0.002020 -7.218496  0.013703
   scf:   68     -895.425867     -895.425748     -895.501159  0.000955 -7.219125  0.008826
   scf:   69     -895.425869     -895.425810     -895.501173  0.001204 -7.218683  0.008266
   scf:   70     -895.426028     -895.425921     -895.501187  0.001410 -7.218099  0.004684
   scf:   71     -895.426252     -895.426089     -895.501195  0.001443 -7.219000  0.002138
   scf:   72     -895.426088     -895.426089     -895.501195  0.000105 -7.219071  0.001826
   scf:   73     -895.426035     -895.426062     -895.501195  0.000500 -7.219201  0.002150
   scf:   74     -895.426083     -895.426073     -895.501195  0.000264 -7.219224  0.001627
   scf:   75     -895.426112     -895.426093     -895.501196  0.000421 -7.219151  0.001089
   scf:   76     -895.426100     -895.426096     -895.501196  0.000259 -7.219258  0.001096
   scf:   77     -895.426121     -895.426109     -895.501196  0.000159 -7.219331  0.001283
   scf:   78     -895.426142     -895.426126     -895.501196  0.000236 -7.219238  0.001349
   scf:   79     -895.426076     -895.426101     -895.501196  0.000310 -7.219164  0.000575
   scf:   80     -895.426117     -895.426109     -895.501196  0.000085 -7.219171  0.000618

SCF Convergence by DM+H criterion
max |DM_out - DM_in|         :     0.0000851173
max |H_out - H_in|      (eV) :     0.0006176849
SCF cycle converged after 80 iterations

Using DM_out to compute the final energy and forces
No. of atoms with KB's overlaping orbs in proc 0. Max # of overlaps:       4      26

siesta: E_KS(eV) =             -895.4261

siesta: Atomic forces (eV/Ang):
----------------------------------------
   Tot   -0.003427   -0.001081   -0.001453
----------------------------------------
   Max    4.003752
   Res    2.680608    sqrt( Sum f_i^2 / 3N )
----------------------------------------
   Max    4.003752    constrained

Stress tensor Voigt[x,y,z,yz,xz,xy] (kbar):        2.73       -4.21        0.97        1.06       -5.77        7.22
(Free)E + p*V (eV/cell)     -895.3960
Target enthalpy (eV/cell)     -895.5012

siesta: Stress tensor (static) (eV/Ang**3):
         0.002920    0.005186   -0.002912
         0.005186    0.000133    0.001302
        -0.002912    0.001302    0.001898

siesta: Pressure (static):         -2.64443682  kBar

siesta: Stress tensor (total) (eV/Ang**3):
         0.001704    0.004506   -0.003601
         0.004506   -0.002626    0.000660
        -0.003601    0.000660    0.000606

siesta: Pressure (total):          0.16849313  kBar

siesta: Temp_ion =    6600.838 K

coxmol: Writing XMOL coordinates into file xoc.xyz                                                                                                                                                                                                                             

siesta: Program's energy decomposition (eV):
siesta: Ebs     =      -177.064086
siesta: Eions   =      1581.702395
siesta: Ena     =       340.451734
siesta: Ekin    =       640.623195
siesta: Enl     =       -95.175813
siesta: Eso     =         0.000000
siesta: Edftu   =         0.000000
siesta: DEna    =         4.534079
siesta: DUscf   =         0.597364
siesta: DUext   =         0.000000
siesta: Ex      =      -191.173831
siesta: Ec      =       -13.580443
siesta: Exc     =      -204.754273
siesta: EbV     =         0.000000
siesta: eta*DQ  =         0.000000
siesta: Emadel  =         0.000000
siesta: Emeta   =         0.000000
siesta: Emolmec =         0.000000
siesta: Ekinion =         2.559673
siesta: Eharris =      -892.866444
siesta: Etot    =      -892.866436
siesta: FreeEng =      -892.941523

siesta: Final energy (eV):
siesta:  Band Struct. =    -177.064086
siesta:       Kinetic =     640.623195
siesta:       Hartree =     778.009499
siesta:         Edftu =       0.000000
siesta:       Eso     =       0.000000
siesta:    Ext. field =       0.000000
siesta:         Exch. =    -191.173831
siesta:         Corr. =     -13.580443
siesta:     Bulk bias =       0.000000
siesta:   Exch.-corr. =    -204.754273
siesta:  Ion-electron =   -2112.856259
siesta:       Ion-ion =       3.551729
siesta:       Ekinion =       2.559673
siesta: D3 dispersion =       0.000000
siesta:         Total =    -892.866436
siesta:         Fermi =      -7.219171

siesta: Atomic forces (eV/Ang):
siesta:      1    2.633790    1.530988   -2.145872
siesta:      2   -3.839512    2.654586   -3.163058
siesta:      3   -1.589400   -0.182902    2.854806
siesta:      4    2.791694   -4.003752    2.452670
siesta: ----------------------------------------
siesta:    Tot   -0.003427   -0.001081   -0.001453

siesta: Stress tensor (static) (eV/Ang**3):
siesta:     0.002920    0.005186   -0.002912
siesta:     0.005186    0.000133    0.001302
siesta:    -0.002912    0.001302    0.001898

siesta: Cell volume =       1000.001196 Ang**3

siesta: Pressure (static):
siesta:                Solid            Molecule  Units
siesta:          -0.00001798         -0.00000000  Ry/Bohr**3
siesta:          -0.00165053         -0.00000022  eV/Ang**3
siesta:          -2.64443682         -0.00035681  kBar
(Free)E+ p_basis*V_orbitals  =        -894.742487
(Free)Eharris+ p_basis*V_orbitals  =        -894.742495

siesta: Electric dipole (a.u.)  =    0.192935   -0.367447   -0.148392
siesta: Electric dipole (Debye) =    0.490392   -0.933958   -0.377174

cite: Please see "xoc.bib" for an exhaustive BiBTeX file.
cite: Please clearly indicate Siesta version in published work: 5.2.1
cite: This calculation has made use of the following articles
cite: which are encouraged to be cited in a published work.
        Primary SIESTA paper
          DOI: www.doi.org/10.1088/0953-8984/14/11/302


timer: Elapsed wall time (sec) =     547.725
timer: CPU execution times (sec):

Routine            Calls   Time/call    Tot.time        %
siesta                 1    2537.550    2537.550   100.00
Setup                  1       1.086       1.086     0.04
bands                  1       0.000       0.000     0.00
KSV_init               1       0.000       0.000     0.00
IterGeom             100      25.365    2536.464    99.96
geom_init            100       0.207      20.652     0.81
state_init           100       0.001       0.098     0.00
hsparse              100       0.000       0.004     0.00
overlap              100       0.001       0.076     0.00
Setup_H0             100       0.096       9.620     0.38
naefs                200       0.000       0.003     0.00
dnaefs               200       0.000       0.002     0.00
MolMec               200       0.000       0.001     0.00
kinefsm              200       0.000       0.089     0.00
nlefsm               200       0.003       0.578     0.02
DHSCF_Init           100       0.090       9.036     0.36
DHSCF1               100       0.008       0.810     0.03
InitMesh             100       0.008       0.809     0.03
INITMESH             100       0.000       0.000     0.00
DHSCF2               100       0.082       8.225     0.32
REMESH               100       0.003       0.320     0.01
REORD              10774       0.002      25.664     1.01
PHION                100       0.040       3.975     0.16
COMM_BSC           18848       0.002      34.549     1.36
POISON              4737       0.159     751.545    29.62
fft                 9474       0.056     533.174    21.01
setup_H             4537       0.552    2502.994    98.64
DHSCF               4637       0.543    2517.448    99.21
DHSCF3              4637       0.541    2510.385    98.93
rhoofd              4637       0.036     165.075     6.51
XC                  4637       0.291    1347.060    53.09
GXC-CellXC          4637       0.277    1285.038    50.64
gridxc@cellXC       4637       0.277    1284.914    50.64
vmat                4637       0.004      19.687     0.78
IterSCF             4437       0.563    2497.583    98.42
compute_dm          4437       0.001       4.906     0.19
diagon              4437       0.001       4.843     0.19
r-eigvec            4437       0.001       4.182     0.16
r-buildHS           4437       0.000       0.011     0.00
rdiag               4437       0.001       4.151     0.16
rdiag1              4437       0.000       0.021     0.00
rdiag2              4437       0.000       0.059     0.00
rdiag3              4437       0.001       3.839     0.15
rdiag4              4437       0.000       0.166     0.01
r-buildD            4437       0.000       0.442     0.02
MIXER               4337       0.000       0.124     0.00
PostSCF              100       0.181      18.134     0.71
FINAL_HF             100       0.181      18.133     0.71
DHSCF4               100       0.070       7.049     0.28
dfscf                100       0.052       5.235     0.21
overfsm              100       0.000       0.017     0.00
writeHSX             100       0.000       0.008     0.00
state_analysis       100       0.000       0.010     0.00
siesta_move          100       0.000       0.022     0.00
Analysis               1       0.000       0.000     0.00
optical                1       0.000       0.000     0.00
  

>> End of run:  26-MAR-2025  17:26:54
Job completed
