Executable      : siesta
Version         : 5.2.1
Architecture    : x86_64
Compiler version: GNU-13.3.0
Compiler flags  : -march=nocona -mtune=haswell -ftree-vectorize -fPIC -fstack-protector-strong -fno-plt -O2 -ffunction-sections -pipe -isystem <prefix>/include -I<prefix>/_build_env/include -fdebug-prefix-map=<prefix>/work=/usr/local/src/conda/siesta-5.2.1 -fdebug-prefix-map=<prefix>=/usr/local/src/conda-prefix -I<prefix>/lib -fallow-argument-mismatch -O3
Parallelisations: none
NetCDF support
NetCDF-4 support
Lua support
DFT-D3 support

Runtime information:
* Directory : /home/samba/homes/convidat/input_v_2_out
* Running in serial mode.
>> Start of run:  26-MAR-2025  18:00:34

                           *********************** 
                           *  WELCOME TO SIESTA  * 
                           *********************** 

 NOTE: Siesta V5 introduces some new defaults for basis-set generation
 NOTE: which might lead to slightly different numerical results.
 NOTE: Please see the manual for full details and compatibility measures.


reinit: Reading from file xoc.fdf

reinit: -----------------------------------------------------------------------
reinit: System Name: H2 + O2 -> H2O2 reaction
reinit: -----------------------------------------------------------------------
reinit: System Label: xoc
reinit: -----------------------------------------------------------------------

initatom: Reading input for the pseudopotentials and atomic orbitals ----------
Species number:   1 Atomic number:    8 Label: O
Species number:   2 Atomic number:    1 Label: H

Ground state valence configuration (from tables):   2s02  2p04  3d00  4f00
Ground state valence configuration (from tables):   1s01  2p00  3d00  4f00

---- Processing specs for species: O
Reading pseudopotential information in formatted form from:
  O.psf

---- Processing specs for species: H
Reading pseudopotential information in unformatted form from:
  H.vps

---- Pseudopotential check for O 

Pseudopotential generated from a fully relativistic atomic calculation
There are spin-orbit semi-local pseudopotentials available

Pseudized shells:
2s( 2.00) rc: 1.14
2p( 4.00) rc: 1.14
3d( 0.00) rc: 1.14
4f( 0.00) rc: 1.14
Valence configuration for ps generation: (assumed as above)

---- Pseudopotential check for H 

Pseudized shells:
1s( 1.00) rc: 1.25
2p( 0.00) rc: 1.25
3d( 0.00) rc: 1.25
4f( 0.00) rc: 1.25
Valence configuration for ps generation: (assumed as above)
For O, standard SIESTA heuristics set lmxkb to 3
 (one more than the basis l, including polarization orbitals).
Use PS.lmax or PS.KBprojectors blocks to override.
For H, standard SIESTA heuristics set lmxkb to 2
 (one more than the basis l, including polarization orbitals).
Use PS.lmax or PS.KBprojectors blocks to override.

<basis_specs>
===============================================================================
O                    Z=   8    Mass=  15.999        Charge= 0.17977+309
Lmxo=2 Lmxkb= 3    BasisType=split      Semic=F
L=0  Nsemic=0  Cnfigmx=2
          i=1  nzeta=1  polorb=0  (2s)
            splnorm:   0.15000    
               vcte:    40.000    
               rinn:  -0.90000    
               qcoe:    0.0000    
               qyuk:    0.0000    
               qwid:   0.10000E-01
                rcs:    0.0000    
            lambdas:    1.0000    
L=1  Nsemic=0  Cnfigmx=2
          i=1  nzeta=1  polorb=1  (2p)  (to be polarized perturbatively)
            splnorm:   0.15000    
               vcte:    40.000    
               rinn:  -0.90000    
               qcoe:    0.0000    
               qyuk:    0.0000    
               qwid:   0.10000E-01
                rcs:    0.0000    
            lambdas:    1.0000    
L=2  Nsemic=0  Cnfigmx=3
          i=1  nzeta=0  polorb=0  (3d)  (perturbative polarization orbital) (from 2p)
-------------------------------------------------------------------------------
L=0  Nkbl=1  erefs: 0.17977+309
L=1  Nkbl=1  erefs: 0.17977+309
L=2  Nkbl=1  erefs: 0.17977+309
L=3  Nkbl=1  erefs: 0.17977+309
===============================================================================
</basis_specs>

Using PAO.SplitTailNorm
atom: Called for O                     (Z =   8)
Maximum radius (at nrval) set to   50.00000 8518

read_vps: Pseudopotential generation method:
read_vps: ATM3      Troullier-Martins                       
Valence charge in pseudo generation:    6.00000

read_vps: Pseudopotential includes a core correction:
read_vps: Pseudo-core for xc-correction

xc_check: Exchange-correlation functional:
xc_check: GGA Perdew, Burke & Ernzerhof 1996
V l=0 = -2*Zval/r beyond r=  1.1355
V l=1 = -2*Zval/r beyond r=  1.1355
V l=2 = -2*Zval/r beyond r=  1.1309
V l=3 = -2*Zval/r beyond r=  1.1286
All V_l potentials equal beyond r=  1.1355
This should be close to max(r_c) in ps generation
All pots = -2*Zval/r beyond r=  1.1355
Using small-core scheme (local charge) for Vlocal

VLOCAL_FROM_CHLOCAL: 99.0% of the norm of Vloc inside     33.667 Ry
VLOCAL_FROM_CHLOCAL: 99.9% of the norm of Vloc inside     76.727 Ry
atom: Maximum radius for chlocal:    1.37241
atom: Maximum radius for r*vlocal+2*Zval:    1.25469

KBgen: Kleinman-Bylander projectors: 
GHOST: No ghost state for L =  0
   l= 0   rc=  1.357289   el= -1.759790   Ekb=  9.151830   kbcos=  0.327271
GHOST: No ghost state for L =  1
   l= 1   rc=  1.345038   el= -0.663797   Ekb= -7.991133   kbcos= -0.393963
GHOST: No ghost state for L =  2
   l= 2   rc=  1.779310   el=  0.012956   Ekb= -1.983219   kbcos= -0.003702
GHOST: No ghost state for L =  3
   l= 3   rc=  2.085579   el=  0.019231   Ekb= -0.873623   kbcos= -0.000360

KBgen: Total number of Kleinman-Bylander projectors:  16
atom: -------------------------------------------------------------------------

atom: SANKEY-TYPE ORBITALS:

SPLIT: Orbitals with angular momentum L= 0

SPLIT: Basis orbitals for state 2s

SPLIT: PAO cut-off radius determined from an
SPLIT: energy shift=  0.010000 Ry
Split based on tail norm

   izeta = 1
                 lambda =    1.000000
                     rc =    3.532490
                 energy =   -1.748682
                kinetic =    1.612754
    potential(screened) =   -3.361436
       potential(ionic) =  -11.306460

SPLIT: Orbitals with angular momentum L= 1

SPLIT: Basis orbitals for state 2p

SPLIT: PAO cut-off radius determined from an
SPLIT: energy shift=  0.010000 Ry
Split based on tail norm

   izeta = 1
                 lambda =    1.000000
                     rc =    4.299534
                 energy =   -0.652755
                kinetic =    4.913628
    potential(screened) =   -5.566382
       potential(ionic) =  -13.292903

POLgen: Perturbative polarization orbital with L=  2

POLgen: Polarization orbital for state 2p
Split based on tail norm

   izeta = 1
                     rc =    4.299534
                 energy =    2.258078
                kinetic =    4.298689
    potential(screened) =   -2.040611
       potential(ionic) =   -8.188336
atom: Total number of Sankey-type orbitals:  9

atm_pop: Valence configuration (for local Pseudopot. screening):
 2s( 2.00)                                                            
 2p( 4.00)                                                            
 3d( 0.00)                                                            
Vna: chval, zval:    6.00000   6.00000

Vna:  Cut-off radius for the neutral-atom potential:   4.299534
comcore: Pseudo-core radius Rcore=  1.364142

atom: _________________________________________________________________________

<basis_specs>
===============================================================================
H                    Z=   1    Mass=  1.0080        Charge= 0.17977+309
Lmxo=1 Lmxkb= 2    BasisType=split      Semic=F
L=0  Nsemic=0  Cnfigmx=1
          i=1  nzeta=1  polorb=1  (1s)  (to be polarized perturbatively)
            splnorm:   0.15000    
               vcte:    40.000    
               rinn:  -0.90000    
               qcoe:    0.0000    
               qyuk:    0.0000    
               qwid:   0.10000E-01
                rcs:    0.0000    
            lambdas:    1.0000    
L=1  Nsemic=0  Cnfigmx=2
          i=1  nzeta=0  polorb=0  (2p)  (perturbative polarization orbital) (from 1s)
-------------------------------------------------------------------------------
L=0  Nkbl=1  erefs: 0.17977+309
L=1  Nkbl=1  erefs: 0.17977+309
L=2  Nkbl=1  erefs: 0.17977+309
===============================================================================
</basis_specs>

Using PAO.SplitTailNorm
atom: Called for H                     (Z =   1)
Maximum radius (at nrval) set to   50.00000 8518

read_vps: Pseudopotential generation method:
read_vps: ATM3      Troullier-Martins                       
Valence charge in pseudo generation:    1.00000

xc_check: Exchange-correlation functional:
xc_check: GGA Perdew, Burke & Ernzerhof 1996
V l=0 = -2*Zval/r beyond r=  1.2384
V l=1 = -2*Zval/r beyond r=  1.2321
V l=2 = -2*Zval/r beyond r=  1.2235
All V_l potentials equal beyond r=  1.2371
This should be close to max(r_c) in ps generation
All pots = -2*Zval/r beyond r=  1.2384
Using small-core scheme (local charge) for Vlocal

VLOCAL_FROM_CHLOCAL: 99.0% of the norm of Vloc inside     28.363 Ry
VLOCAL_FROM_CHLOCAL: 99.9% of the norm of Vloc inside     64.639 Ry
atom: Maximum radius for chlocal:    1.44620
atom: Maximum radius for r*vlocal+2*Zval:    1.31026

KBgen: Kleinman-Bylander projectors: 
GHOST: No ghost state for L =  0
   l= 0   rc=  1.362769   el= -0.477200   Ekb= -2.026093   kbcos= -0.345051
GHOST: No ghost state for L =  1
   l= 1   rc=  1.431710   el=  0.007219   Ekb= -0.445752   kbcos= -0.023729
GHOST: No ghost state for L =  2
   l= 2   rc=  1.471166   el=  0.012944   Ekb= -0.141918   kbcos= -0.003041

KBgen: Total number of Kleinman-Bylander projectors:   9
atom: -------------------------------------------------------------------------

atom: SANKEY-TYPE ORBITALS:

SPLIT: Orbitals with angular momentum L= 0

SPLIT: Basis orbitals for state 1s

SPLIT: PAO cut-off radius determined from an
SPLIT: energy shift=  0.010000 Ry
Split based on tail norm

   izeta = 1
                 lambda =    1.000000
                     rc =    5.232664
                 energy =   -0.466073
                kinetic =    0.944036
    potential(screened) =   -1.410108
       potential(ionic) =   -1.935607

POLgen: Perturbative polarization orbital with L=  1

POLgen: Polarization orbital for state 1s
Split based on tail norm

   izeta = 1
                     rc =    5.232664
                 energy =    0.681103
                kinetic =    1.331928
    potential(screened) =   -0.650824
       potential(ionic) =   -1.138826
atom: Total number of Sankey-type orbitals:  4

atm_pop: Valence configuration (for local Pseudopot. screening):
 1s( 1.00)                                                            
 2p( 0.00)                                                            
Vna: chval, zval:    1.00000   1.00000

Vna:  Cut-off radius for the neutral-atom potential:   5.232664

atom: _________________________________________________________________________

prinput: Basis input 

PAO.BasisType split     

%block ChemicalSpeciesLabel
    1    8 O                       # Species index, atomic number, species label
    2    1 H                       # Species index, atomic number, species label
%endblock ChemicalSpeciesLabel

%block PAO.Basis                 # Define Basis set
# WARNING: This information might be incomplete!
O                     2                    # Species label, number of l-shells
 n=2   0   1                         # n, l, Nzeta 
   3.532   
   1.000   
 n=2   1   1 P   1                   # n, l, Nzeta, Polarization, NzetaPol
   4.300   
   1.000   
H                     1                    # Species label, number of l-shells
 n=1   0   1 P   1                   # n, l, Nzeta, Polarization, NzetaPol
   5.233   
   1.000   
%endblock PAO.Basis

prinput: ----------------------------------------------------------------------

Dumping basis to NetCDF file O.ion.nc
Dumping basis to NetCDF file H.ion.nc
coor:   Atomic-coordinates input format  =     Cartesian coordinates
coor:                                          (in Angstroms)

ioxv: Reading coordinates and velocities from file
! Info in XV file prevails over previous structure input
WARNING: xoc.VERLET_RESTART not found--reading only XV file and moving back 1 time step using Euler

siesta: Atomic coordinates (Bohr) and species
siesta:      2.54735  -0.00100  -0.00070  1        1
siesta:      5.01155  -0.00100  -0.00070  1        2
siesta:     12.94052   0.01600   0.01130  2        3
siesta:     14.34566   0.04982   0.01130  2        4

siesta: System type = chain     

initatomlists: Number of atoms, orbitals, and projectors:      4    26    50

coxmol: Writing XMOL coordinates into file xoc.xyz                                                                                                                                                                                                                             

siesta: ******************** Simulation parameters ****************************
siesta:
siesta: The following are some of the parameters of the simulation.
siesta: A complete list of the parameters used, including default values,
siesta: can be found in file out.fdf
siesta:
redata: Spin configuration                          = none
redata: Number of spin components                   = 1
redata: Time-Reversal Symmetry                      = T
redata: Spin spiral                                 = F
redata: Long output                                 =   F
redata: Number of Atomic Species                    =        2
redata: Charge density info will appear in .RHO file
redata: Write Mulliken charges (when)               = none
redata: Write Mulliken Pop.                         = NO
redata: Write Hirshfeld charges (when)              = none
redata: Write Voronoi charges (when)                = none
redata: Write spin charge (when)                    = none
redata: Matel table size (NRTAB)                    =     1024
redata: Mesh Cutoff                                 =   200.0000 Ry
redata: Net charge of the system                    =     0.0000 |e|
redata: Min. number of SCF Iter                     =        0
redata: Max. number of SCF Iter                     =      250
redata: SCF convergence failure will abort job
redata: SCF mix quantity                            = Hamiltonian
redata: Mix DM or H after convergence               =   F
redata: Recompute H after scf cycle                 =   F
redata: Mix DM in first SCF step                    =   T
redata: Write Pulay info on disk                    =   F
redata: New DM Occupancy tolerance                  = 0.000000000001
redata: No kicks to SCF
redata: DM Mixing Weight for Kicks                  =     0.5000
redata: Require Harris convergence for SCF          =   F
redata: Harris energy tolerance for SCF             =     0.000100 eV
redata: Require DM convergence for SCF              =   T
redata: DM tolerance for SCF                        =     0.000300
redata: Require EDM convergence for SCF             =   F
redata: EDM tolerance for SCF                       =     0.001000 eV
redata: Require H convergence for SCF               =   T
redata: Hamiltonian tolerance for SCF               =     0.001000 eV
redata: Require (free) Energy convergence for SCF   =   F
redata: (free) Energy tolerance for SCF             =     0.000100 eV
redata: Using DFT-D3 dispersion                     =   F
redata: Using Saved Data (generic)                  =   F
redata: Use continuation files for DM               =   T
redata: Neglect nonoverlap interactions             =   F
redata: Method of Calculation                       = Diagonalization
redata: Electronic Temperature                      =   290.1130 K
redata: Fix the spin of the system                  =   F
redata: Max. number of TDED Iter                    =        1
redata: Number of TDED substeps                     =        3
redata: Dynamics option                             = Verlet MD run
redata: Initial MD time step                        =        1
redata:   Final MD time step                        =      200
redata: Length of MD time step                      =     1.0000 fs
redata: Initial Temperature of MD run               =     0.0000 K
redata: Perform a MD quench                         =   F
mix.SCF: Pulay mixing                            = Pulay
mix.SCF:    Variant                              = stable
mix.SCF:    History steps                        = 6
mix.SCF:    Linear mixing weight                 =     0.020000
mix.SCF:    Mixing weight                        =     0.020000
mix.SCF:    SVD condition                        = 0.1000E-07
redata: Save all siesta data in one NC              =   F
redata: ***********************************************************************

%block SCF.Mixers
  Pulay
%endblock SCF.Mixers

%block SCF.Mixer.Pulay
  # Mixing method
  method pulay
  variant stable

  # Mixing options
  weight 0.0200
  weight.linear 0.0200
  history 6
%endblock SCF.Mixer.Pulay

Size of DM history Fstack: 1
Total number of electrons:    14.000000
Total ionic charge:    14.000000
 Kpoints in:            1 . Kpoints trimmed:            1

siesta: k-grid: Number of k-points = 1
siesta: k-points from Monkhorst-Pack grid
siesta: k-cutoff (effective) =     5.000 Ang
siesta: k-point supercell and displacements
siesta: k-grid:     1     0     0      0.000
siesta: k-grid:     0     1     0      0.000
siesta: k-grid:     0     0     1      0.000

diag: Algorithm                                     = D&C
diag: Used triangular part                          = Lower
diag: Absolute tolerance                            =  0.100E-15
diag: Orthogonalization factor                      =  0.100E-05
diag: Memory factor                                 =  1.0000


ts: **************************************************************
ts: Save H and S matrices                           =    F
ts: Save DM and EDM matrices                        =    F
ts: Only save the overlap matrix S                  =    F
ts: **************************************************************

************************ Begin: TS CHECKS AND WARNINGS ************************
************************ End: TS CHECKS AND WARNINGS **************************


                     ====================================
                        Begin MD step =      1
                     ====================================

outcell: Unit cell vectors (Ang):
       10.000004    0.000000    0.000000
        0.000000   10.000004    0.000000
        0.000000    0.000000   10.000004

outcell: Cell vector modules (Ang)   :   10.000004   10.000004   10.000004
outcell: Cell angles (23,13,12) (deg):     90.0000     90.0000     90.0000
outcell: Cell volume (Ang**3)        :   1000.0012
Gamma-point calculation with multiply-connected orbital pairs
Folding of H and S implicitly performed
<dSpData1D:S at geom step 1
  <sparsity:sparsity for geom step 1
    nrows_g=26 nrows=26 sparsity=1.0000 nnzs=676, refcount: 7>
  <dData1D:(new from dSpData1D) n=676, refcount: 1>
refcount: 1>
new_DM -- step:     1
Initializing Density Matrix...

Attempting to read DM from file... Failed...
DM filled with atomic data:
<dSpData2D:DM initialized from atoms
  <sparsity:sparsity for geom step 1
    nrows_g=26 nrows=26 sparsity=1.0000 nnzs=676, refcount: 8>
  <dData2D:DM n=676 m=1, refcount: 1>
refcount: 1>
No. of atoms with KB's overlaping orbs in proc 0. Max # of overlaps:       4      22

InitMesh: MESH = 90 x 90 x 90 = 729000
InitMesh: Mesh cutoff (required, used) =   200.000   223.865 Ry
New grid distribution [1]: sub = 2

stepf: Fermi-Dirac step function

siesta: Program's energy decomposition (eV):
siesta: Ebs     =      -209.892734
siesta: Eions   =      1581.702395
siesta: Ena     =       338.338243
siesta: Ekin    =       624.491192
siesta: Enl     =       -90.744156
siesta: Eso     =         0.000000
siesta: Edftu   =         0.000000
siesta: DEna    =        14.379086
siesta: DUscf   =         1.600478
siesta: DUext   =         0.000000
siesta: Ex      =      -190.456925
siesta: Ec      =       -13.816580
siesta: Exc     =      -204.273506
siesta: EbV     =         0.000000
siesta: eta*DQ  =         0.000000
siesta: Emadel  =         0.000000
siesta: Emeta   =         0.000000
siesta: Emolmec =         0.000000
siesta: Ekinion =         0.000000
siesta: Eharris =      -900.352245
siesta: Etot    =      -897.911057
siesta: FreeEng =      -897.980372

        iscf     Eharris(eV)        E_KS(eV)     FreeEng(eV)     dDmax    Ef(eV) dHmax(eV)
   scf:    1     -900.352245     -897.911057     -897.980372  0.774851 -4.685393  2.426543
timer: Routine,Calls,Time,% = IterSCF        1       0.561  24.98
   scf:    2     -897.949012     -897.930092     -897.999407  0.001845 -4.718029  2.360443
   scf:    3     -898.371875     -898.215101     -898.284416  0.064671 -5.798321  0.208280
   scf:    4     -898.215131     -898.216497     -898.285811  0.009113 -5.713171  0.384140
   scf:    5     -898.219250     -898.218414     -898.287728  0.008588 -5.925779  0.059846
   scf:    6     -898.218791     -898.218711     -898.288026  0.002358 -5.906114  0.016174
mix: Pulay -- inversion failed, > SVD [rank/size] 4 / 5
   scf:    7     -898.218724     -898.218718     -898.288032  0.000088 -5.907295  0.013549
   scf:    8     -898.218743     -898.218733     -898.288048  0.000430 -5.909716  0.001709
   scf:    9     -898.218733     -898.218733     -898.288048  0.000224 -5.910169  0.000208

SCF Convergence by DM+H criterion
max |DM_out - DM_in|         :     0.0002236415
max |H_out - H_in|      (eV) :     0.0002077351
SCF cycle converged after 9 iterations

Using DM_out to compute the final energy and forces
No. of atoms with KB's overlaping orbs in proc 0. Max # of overlaps:       4      22

siesta: E_KS(eV) =             -898.2187

siesta: E_KS - E_eggbox =      -898.2187

siesta: Atomic forces (eV/Ang):
----------------------------------------
   Tot    0.001040   -0.000790   -0.000167
----------------------------------------
   Max    4.201581
   Res    1.713278    sqrt( Sum f_i^2 / 3N )
----------------------------------------
   Max    4.201581    constrained

Stress tensor Voigt[x,y,z,yz,xz,xy] (kbar):      -21.21       -0.36       -0.25       -0.01        0.05       -0.55
(Free)E + p*V (eV/cell)     -893.7477
Target enthalpy (eV/cell)     -898.2880

siesta: Stress tensor (static) (eV/Ang**3):
        -0.003062   -0.000075   -0.000000
        -0.000075    0.000004    0.000000
        -0.000000    0.000000    0.000006

siesta: Pressure (static):          1.62980386  kBar

siesta: Stress tensor (total) (eV/Ang**3):
        -0.013240   -0.000340    0.000029
        -0.000340   -0.000227   -0.000009
         0.000029   -0.000009   -0.000154

siesta: Pressure (total):          7.27444333  kBar

siesta: Temp_ion =   13628.002 K

                     ====================================
                        Begin MD step =      2
                     ====================================

outcell: Unit cell vectors (Ang):
       10.000004    0.000000    0.000000
        0.000000   10.000004    0.000000
        0.000000    0.000000   10.000004

outcell: Cell vector modules (Ang)   :   10.000004   10.000004   10.000004
outcell: Cell angles (23,13,12) (deg):     90.0000     90.0000     90.0000
outcell: Cell volume (Ang**3)        :   1000.0012
<dSpData1D:S at geom step 2
  <sparsity:sparsity for geom step 2
    nrows_g=26 nrows=26 sparsity=.9763 nnzs=660, refcount: 7>
  <dData1D:(new from dSpData1D) n=660, refcount: 1>
refcount: 1>
new_DM -- step:     2
Re-using DM from previous geometries...
Number of DMs in history: 1
 DM extrapolation coefficients: 
1   1.00000
New DM after history re-use:
<dSpData2D:SpM extrapolated using coords
  <sparsity:sparsity for geom step 2
    nrows_g=26 nrows=26 sparsity=.9763 nnzs=660, refcount: 9>
  <dData2D:(temp array for extrapolation) n=660 m=1, refcount: 1>
refcount: 1>
No. of atoms with KB's overlaping orbs in proc 0. Max # of overlaps:       4      18

InitMesh: MESH = 90 x 90 x 90 = 729000
InitMesh: Mesh cutoff (required, used) =   200.000   223.865 Ry
New grid distribution [1]: sub = 2

        iscf     Eharris(eV)        E_KS(eV)     FreeEng(eV)     dDmax    Ef(eV) dHmax(eV)
   scf:    1     -898.117542     -898.301991     -898.371306  0.012567 -5.750900  0.162961
   scf:    2     -898.299898     -898.301696     -898.371001  0.012176 -5.884507  0.130187
   scf:    3     -898.303004     -898.302454     -898.371767  0.005499 -5.841057  0.070423
   scf:    4     -898.302439     -898.302591     -898.371901  0.010596 -5.853407  0.014386
   scf:    5     -898.302618     -898.302643     -898.371958  0.006578 -5.854803  0.012313
   scf:    6     -898.302612     -898.302631     -898.371945  0.001777 -5.867322  0.016132
   scf:    7     -898.302663     -898.302658     -898.371973  0.003102 -5.864627  0.000560
   scf:    8     -898.302658     -898.302658     -898.371973  0.000131 -5.864880  0.000301

SCF Convergence by DM+H criterion
max |DM_out - DM_in|         :     0.0001310797
max |H_out - H_in|      (eV) :     0.0003006122
SCF cycle converged after 8 iterations

Using DM_out to compute the final energy and forces
No. of atoms with KB's overlaping orbs in proc 0. Max # of overlaps:       4      18

siesta: E_KS(eV) =             -898.3027

siesta: Atomic forces (eV/Ang):
----------------------------------------
   Tot    0.000702    0.000145    0.000217
----------------------------------------
   Max    3.094985
   Res    1.286080    sqrt( Sum f_i^2 / 3N )
----------------------------------------
   Max    3.094985    constrained

Stress tensor Voigt[x,y,z,yz,xz,xy] (kbar):      -21.13       -0.37       -0.27       -0.03       -0.22       -0.62
(Free)E + p*V (eV/cell)     -893.8441
Target enthalpy (eV/cell)     -898.3720

siesta: Stress tensor (static) (eV/Ang**3):
        -0.003008   -0.000121   -0.000165
        -0.000121    0.000000   -0.000008
        -0.000165   -0.000008   -0.000006

siesta: Pressure (static):          1.60973154  kBar

siesta: Stress tensor (total) (eV/Ang**3):
        -0.013186   -0.000386   -0.000136
        -0.000386   -0.000231   -0.000017
        -0.000136   -0.000017   -0.000166

siesta: Pressure (total):          7.25437101  kBar

siesta: Temp_ion =   13792.334 K

                     ====================================
                        Begin MD step =      3
                     ====================================

outcell: Unit cell vectors (Ang):
       10.000004    0.000000    0.000000
        0.000000   10.000004    0.000000
        0.000000    0.000000   10.000004

outcell: Cell vector modules (Ang)   :   10.000004   10.000004   10.000004
outcell: Cell angles (23,13,12) (deg):     90.0000     90.0000     90.0000
outcell: Cell volume (Ang**3)        :   1000.0012
Gamma-point calculation with multiply-connected orbital pairs
Folding of H and S implicitly performed
<dSpData1D:S at geom step 3
  <sparsity:sparsity for geom step 3
    nrows_g=26 nrows=26 sparsity=1.0000 nnzs=676, refcount: 7>
  <dData1D:(new from dSpData1D) n=676, refcount: 1>
refcount: 1>
new_DM -- step:     3
Re-using DM from previous geometries...
Number of DMs in history: 1
 DM extrapolation coefficients: 
1   1.00000
New DM after history re-use:
<dSpData2D:SpM extrapolated using coords
  <sparsity:sparsity for geom step 3
    nrows_g=26 nrows=26 sparsity=1.0000 nnzs=676, refcount: 9>
  <dData2D:(temp array for extrapolation) n=676 m=1, refcount: 1>
refcount: 1>
Note: For starting DM, Qtot, Tr[D*S] =         14.00000000         13.95979823
No. of atoms with KB's overlaping orbs in proc 0. Max # of overlaps:       4      22

InitMesh: MESH = 90 x 90 x 90 = 729000
InitMesh: Mesh cutoff (required, used) =   200.000   223.865 Ry
New grid distribution [1]: sub = 2

        iscf     Eharris(eV)        E_KS(eV)     FreeEng(eV)     dDmax    Ef(eV) dHmax(eV)
   scf:    1     -898.136438     -898.427438     -898.496752  0.019598 -5.423762  0.502335
   scf:    2     -898.419231     -898.426071     -898.495319  0.020183 -5.867149  0.241958
   scf:    3     -898.430285     -898.428396     -898.497689  0.007953 -5.774376  0.153139
   scf:    4     -898.427898     -898.429167     -898.498446  0.024270 -5.802216  0.041773
   scf:    5     -898.429419     -898.429616     -898.498929  0.016611 -5.806205  0.034154
   scf:    6     -898.429683     -898.429652     -898.498964  0.000314 -5.830355  0.025398
   scf:    7     -898.429765     -898.429731     -898.499046  0.003247 -5.827388  0.001670
   scf:    8     -898.429730     -898.429731     -898.499046  0.000426 -5.827783  0.001007
   scf:    9     -898.429731     -898.429731     -898.499045  0.000069 -5.828083  0.000752

SCF Convergence by DM+H criterion
max |DM_out - DM_in|         :     0.0000685346
max |H_out - H_in|      (eV) :     0.0007523351
SCF cycle converged after 9 iterations

Using DM_out to compute the final energy and forces
No. of atoms with KB's overlaping orbs in proc 0. Max # of overlaps:       4      22

siesta: E_KS(eV) =             -898.4297

siesta: Atomic forces (eV/Ang):
----------------------------------------
   Tot   -0.000165    0.000230    0.000037
----------------------------------------
   Max    1.042279
   Res    0.427556    sqrt( Sum f_i^2 / 3N )
----------------------------------------
   Max    1.042279    constrained

Stress tensor Voigt[x,y,z,yz,xz,xy] (kbar):      -18.70       -0.37       -0.27       -0.03       -0.29       -0.61
(Free)E + p*V (eV/cell)     -894.4740
Target enthalpy (eV/cell)     -898.4990

siesta: Stress tensor (static) (eV/Ang**3):
        -0.001385   -0.000041   -0.000010
        -0.000041    0.000004   -0.000001
        -0.000010   -0.000001    0.000004

siesta: Pressure (static):          0.73604380  kBar

siesta: Stress tensor (total) (eV/Ang**3):
        -0.011674   -0.000380   -0.000183
        -0.000380   -0.000233   -0.000019
        -0.000183   -0.000019   -0.000168

siesta: Pressure (total):          6.44874860  kBar

siesta: Temp_ion =   14079.926 K

                     ====================================
                        Begin MD step =      4
                     ====================================

outcell: Unit cell vectors (Ang):
       10.000004    0.000000    0.000000
        0.000000   10.000004    0.000000
        0.000000    0.000000   10.000004

outcell: Cell vector modules (Ang)   :   10.000004   10.000004   10.000004
outcell: Cell angles (23,13,12) (deg):     90.0000     90.0000     90.0000
outcell: Cell volume (Ang**3)        :   1000.0012
<dSpData1D:S at geom step 4
  <sparsity:sparsity for geom step 4
    nrows_g=26 nrows=26 sparsity=1.0000 nnzs=676, refcount: 7>
  <dData1D:(new from dSpData1D) n=676, refcount: 1>
refcount: 1>
new_DM -- step:     4
Re-using DM from previous geometries...
Number of DMs in history: 1
 DM extrapolation coefficients: 
1   1.00000
New DM after history re-use:
<dSpData2D:SpM extrapolated using coords
  <sparsity:sparsity for geom step 4
    nrows_g=26 nrows=26 sparsity=1.0000 nnzs=676, refcount: 9>
  <dData2D:(temp array for extrapolation) n=676 m=1, refcount: 1>
refcount: 1>
Note: For starting DM, Qtot, Tr[D*S] =         14.00000000         13.95079849
No. of atoms with KB's overlaping orbs in proc 0. Max # of overlaps:       4      22

InitMesh: MESH = 90 x 90 x 90 = 729000
InitMesh: Mesh cutoff (required, used) =   200.000   223.865 Ry
New grid distribution [1]: sub = 2

        iscf     Eharris(eV)        E_KS(eV)     FreeEng(eV)     dDmax    Ef(eV) dHmax(eV)
   scf:    1     -898.005011     -898.338989     -898.408299  0.020775 -5.312815  0.618180
   scf:    2     -898.299182     -898.328036     -898.396663  0.078978 -5.848754  0.390798
   scf:    3     -898.344281     -898.337274     -898.406373  0.031149 -5.725974  0.260222
   scf:    4     -898.331785     -898.339601     -898.408741  0.072059 -5.770737  0.092397
   scf:    5     -898.341119     -898.341821     -898.411131  0.038913 -5.776407  0.037199
   scf:    6     -898.341873     -898.341854     -898.411168  0.002622 -5.781664  0.038166
   scf:    7     -898.342062     -898.341985     -898.411299  0.002536 -5.803519  0.001763
   scf:    8     -898.341985     -898.341985     -898.411300  0.000367 -5.802713  0.002392
   scf:    9     -898.341984     -898.341985     -898.411300  0.000472 -5.804152  0.001518
   scf:   10     -898.341985     -898.341985     -898.411299  0.000060 -5.804249  0.001317
   scf:   11     -898.341985     -898.341985     -898.411300  0.000386 -5.804668  0.000456
   scf:   12     -898.341985     -898.341985     -898.411300  0.000009 -5.804680  0.000416

SCF Convergence by DM+H criterion
max |DM_out - DM_in|         :     0.0000085767
max |H_out - H_in|      (eV) :     0.0004160020
SCF cycle converged after 12 iterations

Using DM_out to compute the final energy and forces
No. of atoms with KB's overlaping orbs in proc 0. Max # of overlaps:       4      22

siesta: E_KS(eV) =             -898.3420

siesta: Atomic forces (eV/Ang):
----------------------------------------
   Tot   -0.000927   -0.000073    0.000470
----------------------------------------
   Max    1.771682
   Res    0.948817    sqrt( Sum f_i^2 / 3N )
----------------------------------------
   Max    1.771682    constrained

Stress tensor Voigt[x,y,z,yz,xz,xy] (kbar):      -17.01       -0.36       -0.20        0.00        0.07       -0.51
(Free)E + p*V (eV/cell)     -894.7564
Target enthalpy (eV/cell)     -898.4113

siesta: Stress tensor (static) (eV/Ang**3):
        -0.000120    0.000069    0.000313
         0.000069    0.000013    0.000026
         0.000313    0.000026    0.000061

siesta: Pressure (static):          0.02403162  kBar

siesta: Stress tensor (total) (eV/Ang**3):
        -0.010614   -0.000321    0.000043
        -0.000321   -0.000227    0.000001
         0.000043    0.000001   -0.000124

siesta: Pressure (total):          5.85585533  kBar

siesta: Temp_ion =   13890.798 K

                     ====================================
                        Begin MD step =      5
                     ====================================

outcell: Unit cell vectors (Ang):
       10.000004    0.000000    0.000000
        0.000000   10.000004    0.000000
        0.000000    0.000000   10.000004

outcell: Cell vector modules (Ang)   :   10.000004   10.000004   10.000004
outcell: Cell angles (23,13,12) (deg):     90.0000     90.0000     90.0000
outcell: Cell volume (Ang**3)        :   1000.0012
<dSpData1D:S at geom step 5
  <sparsity:sparsity for geom step 5
    nrows_g=26 nrows=26 sparsity=1.0000 nnzs=676, refcount: 7>
  <dData1D:(new from dSpData1D) n=676, refcount: 1>
refcount: 1>
new_DM -- step:     5
Re-using DM from previous geometries...
Number of DMs in history: 1
 DM extrapolation coefficients: 
1   1.00000
New DM after history re-use:
<dSpData2D:SpM extrapolated using coords
  <sparsity:sparsity for geom step 5
    nrows_g=26 nrows=26 sparsity=1.0000 nnzs=676, refcount: 9>
  <dData2D:(temp array for extrapolation) n=676 m=1, refcount: 1>
refcount: 1>
Note: For starting DM, Qtot, Tr[D*S] =         14.00000000         13.96568609
No. of atoms with KB's overlaping orbs in proc 0. Max # of overlaps:       4      22

InitMesh: MESH = 90 x 90 x 90 = 729000
InitMesh: Mesh cutoff (required, used) =   200.000   223.865 Ry
New grid distribution [1]: sub = 2

        iscf     Eharris(eV)        E_KS(eV)     FreeEng(eV)     dDmax    Ef(eV) dHmax(eV)
   scf:    1     -897.955711     -898.206245     -898.275559  0.013789 -5.445326  0.453047
   scf:    2     -898.194879     -898.203494     -898.272773  0.021082 -5.832611  0.273239
   scf:    3     -898.208493     -898.206273     -898.275577  0.007775 -5.738649  0.187288
   scf:    4     -898.206759     -898.207439     -898.276729  0.019746 -5.780927  0.032112
   scf:    5     -898.207602     -898.207736     -898.277050  0.011645 -5.783978  0.026630
   scf:    6     -898.207764     -898.207752     -898.277065  0.000701 -5.793223  0.021234
   scf:    7     -898.207830     -898.207809     -898.277124  0.002814 -5.799089  0.001535
   scf:    8     -898.207808     -898.207809     -898.277124  0.000314 -5.799404  0.000724
   scf:    9     -898.207809     -898.207809     -898.277123  0.000027 -5.799557  0.000538

SCF Convergence by DM+H criterion
max |DM_out - DM_in|         :     0.0000273422
max |H_out - H_in|      (eV) :     0.0005383561
SCF cycle converged after 9 iterations

Using DM_out to compute the final energy and forces
No. of atoms with KB's overlaping orbs in proc 0. Max # of overlaps:       4      22

siesta: E_KS(eV) =             -898.2078

siesta: Atomic forces (eV/Ang):
----------------------------------------
   Tot   -0.001974   -0.000101    0.000042
----------------------------------------
   Max    2.558935
   Res    1.297161    sqrt( Sum f_i^2 / 3N )
----------------------------------------
   Max    2.558935    constrained

Stress tensor Voigt[x,y,z,yz,xz,xy] (kbar):      -15.96       -0.35       -0.05        0.06        0.60       -0.41
(Free)E + p*V (eV/cell)     -894.8734
Target enthalpy (eV/cell)     -898.2771

siesta: Stress tensor (static) (eV/Ang**3):
         0.000404    0.000133    0.000586
         0.000133    0.000022    0.000058
         0.000586    0.000058    0.000135

siesta: Pressure (static):         -0.30012046  kBar

siesta: Stress tensor (total) (eV/Ang**3):
        -0.009962   -0.000255    0.000376
        -0.000254   -0.000216    0.000040
         0.000376    0.000040   -0.000033

siesta: Pressure (total):          5.45336752  kBar

siesta: Temp_ion =   13571.253 K

                     ====================================
                        Begin MD step =      6
                     ====================================

outcell: Unit cell vectors (Ang):
       10.000004    0.000000    0.000000
        0.000000   10.000004    0.000000
        0.000000    0.000000   10.000004

outcell: Cell vector modules (Ang)   :   10.000004   10.000004   10.000004
outcell: Cell angles (23,13,12) (deg):     90.0000     90.0000     90.0000
outcell: Cell volume (Ang**3)        :   1000.0012
<dSpData1D:S at geom step 6
  <sparsity:sparsity for geom step 6
    nrows_g=26 nrows=26 sparsity=.9882 nnzs=668, refcount: 7>
  <dData1D:(new from dSpData1D) n=668, refcount: 1>
refcount: 1>
new_DM -- step:     6
Re-using DM from previous geometries...
Number of DMs in history: 1
 DM extrapolation coefficients: 
1   1.00000
New DM after history re-use:
<dSpData2D:SpM extrapolated using coords
  <sparsity:sparsity for geom step 6
    nrows_g=26 nrows=26 sparsity=.9882 nnzs=668, refcount: 9>
  <dData2D:(temp array for extrapolation) n=668 m=1, refcount: 1>
refcount: 1>
No. of atoms with KB's overlaping orbs in proc 0. Max # of overlaps:       4      22

InitMesh: MESH = 90 x 90 x 90 = 729000
InitMesh: Mesh cutoff (required, used) =   200.000   223.865 Ry
New grid distribution [1]: sub = 2

        iscf     Eharris(eV)        E_KS(eV)     FreeEng(eV)     dDmax    Ef(eV) dHmax(eV)
   scf:    1     -898.104503     -898.183138     -898.252449  0.012617 -5.725407  0.118806
   scf:    2     -898.162381     -898.176682     -898.245458  0.066280 -5.827049  0.131719
   scf:    3     -898.185252     -898.181964     -898.251171  0.033462 -5.790114  0.081941
   scf:    4     -898.182764     -898.183229     -898.252541  0.031075 -5.809755  0.030066
   scf:    5     -898.183197     -898.183278     -898.252592  0.008255 -5.810427  0.010069
   scf:    6     -898.183302     -898.183295     -898.252610  0.002353 -5.813426  0.005989
   scf:    7     -898.183302     -898.183300     -898.252615  0.000997 -5.817810  0.000361
   scf:    8     -898.183300     -898.183300     -898.252615  0.000126 -5.817969  0.000443

SCF Convergence by DM+H criterion
max |DM_out - DM_in|         :     0.0001259916
max |H_out - H_in|      (eV) :     0.0004432075
SCF cycle converged after 8 iterations

Using DM_out to compute the final energy and forces
No. of atoms with KB's overlaping orbs in proc 0. Max # of overlaps:       4      22

siesta: E_KS(eV) =             -898.1833

siesta: Atomic forces (eV/Ang):
----------------------------------------
   Tot   -0.002681   -0.000303   -0.000045
----------------------------------------
   Max    2.663452
   Res    1.382007    sqrt( Sum f_i^2 / 3N )
----------------------------------------
   Max    2.663452    constrained

Stress tensor Voigt[x,y,z,yz,xz,xy] (kbar):      -15.71       -0.33        0.12        0.13        1.04       -0.37
(Free)E + p*V (eV/cell)     -894.9393
Target enthalpy (eV/cell)     -898.2526

siesta: Stress tensor (static) (eV/Ang**3):
         0.000365    0.000135    0.000723
         0.000135    0.000026    0.000082
         0.000723    0.000082    0.000195

siesta: Pressure (static):         -0.31265237  kBar

siesta: Stress tensor (total) (eV/Ang**3):
        -0.009806   -0.000230    0.000649
        -0.000230   -0.000207    0.000083
         0.000649    0.000083    0.000073

siesta: Pressure (total):          5.30848195  kBar

siesta: Temp_ion =   13513.370 K

                     ====================================
                        Begin MD step =      7
                     ====================================

outcell: Unit cell vectors (Ang):
       10.000004    0.000000    0.000000
        0.000000   10.000004    0.000000
        0.000000    0.000000   10.000004

outcell: Cell vector modules (Ang)   :   10.000004   10.000004   10.000004
outcell: Cell angles (23,13,12) (deg):     90.0000     90.0000     90.0000
outcell: Cell volume (Ang**3)        :   1000.0012
Gamma-point calculation with multiply-connected orbital pairs
Folding of H and S implicitly performed
<dSpData1D:S at geom step 7
  <sparsity:sparsity for geom step 7
    nrows_g=26 nrows=26 sparsity=1.0000 nnzs=676, refcount: 7>
  <dData1D:(new from dSpData1D) n=676, refcount: 1>
refcount: 1>
new_DM -- step:     7
Re-using DM from previous geometries...
Number of DMs in history: 1
 DM extrapolation coefficients: 
1   1.00000
New DM after history re-use:
<dSpData2D:SpM extrapolated using coords
  <sparsity:sparsity for geom step 7
    nrows_g=26 nrows=26 sparsity=1.0000 nnzs=676, refcount: 9>
  <dData2D:(temp array for extrapolation) n=676 m=1, refcount: 1>
refcount: 1>
Note: For starting DM, Qtot, Tr[D*S] =         14.00000000         14.02692428
No. of atoms with KB's overlaping orbs in proc 0. Max # of overlaps:       4      26

InitMesh: MESH = 90 x 90 x 90 = 729000
InitMesh: Mesh cutoff (required, used) =   200.000   223.865 Ry
New grid distribution [1]: sub = 2

        iscf     Eharris(eV)        E_KS(eV)     FreeEng(eV)     dDmax    Ef(eV) dHmax(eV)
   scf:    1     -898.400443     -898.295415     -898.364728  0.013003 -6.050853  0.342775
   scf:    2     -898.220745     -898.272960     -898.342049  0.065254 -5.835278  0.587787
   scf:    3     -898.305953     -898.296136     -898.365440  0.045937 -5.972623  0.227020
   scf:    4     -898.292073     -898.295628     -898.364814  0.041967 -5.879216  0.055874
   scf:    5     -898.297372     -898.297080     -898.366392  0.026761 -5.866245  0.019842
   scf:    6     -898.297112     -898.297108     -898.366423  0.003868 -5.869675  0.015064
   scf:    7     -898.297139     -898.297127     -898.366442  0.000447 -5.860196  0.000807
   scf:    8     -898.297127     -898.297127     -898.366442  0.000139 -5.860606  0.000829

SCF Convergence by DM+H criterion
max |DM_out - DM_in|         :     0.0001388385
max |H_out - H_in|      (eV) :     0.0008294881
SCF cycle converged after 8 iterations

Using DM_out to compute the final energy and forces
No. of atoms with KB's overlaping orbs in proc 0. Max # of overlaps:       4      26

siesta: E_KS(eV) =             -898.2971

siesta: Atomic forces (eV/Ang):
----------------------------------------
   Tot    0.004192   -0.000466   -0.000265
----------------------------------------
   Max    2.204812
   Res    1.238161    sqrt( Sum f_i^2 / 3N )
----------------------------------------
   Max    2.204812    constrained

Stress tensor Voigt[x,y,z,yz,xz,xy] (kbar):      -16.59       -0.33        0.22        0.17        1.13       -0.47
(Free)E + p*V (eV/cell)     -894.8910
Target enthalpy (eV/cell)     -898.3664

siesta: Stress tensor (static) (eV/Ang**3):
        -0.000174    0.000068    0.000667
         0.000069    0.000020    0.000085
         0.000667    0.000085    0.000207

siesta: Pressure (static):         -0.02887488  kBar

siesta: Stress tensor (total) (eV/Ang**3):
        -0.010356   -0.000292    0.000704
        -0.000292   -0.000208    0.000107
         0.000704    0.000107    0.000138

siesta: Pressure (total):          5.56828464  kBar

siesta: Temp_ion =   13791.524 K

                     ====================================
                        Begin MD step =      8
                     ====================================

outcell: Unit cell vectors (Ang):
       10.000004    0.000000    0.000000
        0.000000   10.000004    0.000000
        0.000000    0.000000   10.000004

outcell: Cell vector modules (Ang)   :   10.000004   10.000004   10.000004
outcell: Cell angles (23,13,12) (deg):     90.0000     90.0000     90.0000
outcell: Cell volume (Ang**3)        :   1000.0012
<dSpData1D:S at geom step 8
  <sparsity:sparsity for geom step 8
    nrows_g=26 nrows=26 sparsity=1.0000 nnzs=676, refcount: 7>
  <dData1D:(new from dSpData1D) n=676, refcount: 1>
refcount: 1>
new_DM -- step:     8
Re-using DM from previous geometries...
Number of DMs in history: 1
 DM extrapolation coefficients: 
1   1.00000
New DM after history re-use:
<dSpData2D:SpM extrapolated using coords
  <sparsity:sparsity for geom step 8
    nrows_g=26 nrows=26 sparsity=1.0000 nnzs=676, refcount: 9>
  <dData2D:(temp array for extrapolation) n=676 m=1, refcount: 1>
refcount: 1>
Note: For starting DM, Qtot, Tr[D*S] =         14.00000000         14.05283751
No. of atoms with KB's overlaping orbs in proc 0. Max # of overlaps:       4      26

InitMesh: MESH = 90 x 90 x 90 = 729000
InitMesh: Mesh cutoff (required, used) =   200.000   223.865 Ry
New grid distribution [1]: sub = 2

        iscf     Eharris(eV)        E_KS(eV)     FreeEng(eV)     dDmax    Ef(eV) dHmax(eV)
   scf:    1     -898.675533     -898.446904     -898.516216  0.018011 -6.326721  0.729090
   scf:    2     -898.145742     -898.356752     -898.425887  0.068666 -5.860551  1.178622
   scf:    3     -898.491114     -898.450374     -898.519681  0.046988 -6.156840  0.476749
   scf:    4     -898.449732     -898.452957     -898.522135  0.031104 -5.949729  0.046222
   scf:    5     -898.454721     -898.454042     -898.523319  0.011937 -5.940278  0.041452
   scf:    6     -898.454327     -898.454446     -898.523761  0.013398 -5.943410  0.031047
   scf:    7     -898.454595     -898.454542     -898.523857  0.001950 -5.922320  0.004192
   scf:    8     -898.454544     -898.454544     -898.523859  0.000612 -5.923175  0.001613
   scf:    9     -898.454544     -898.454544     -898.523858  0.000388 -5.922450  0.000973
   scf:   10     -898.454544     -898.454544     -898.523858  0.000025 -5.922430  0.000724

SCF Convergence by DM+H criterion
max |DM_out - DM_in|         :     0.0000254656
max |H_out - H_in|      (eV) :     0.0007242005
SCF cycle converged after 10 iterations

Using DM_out to compute the final energy and forces
No. of atoms with KB's overlaping orbs in proc 0. Max # of overlaps:       4      26

siesta: E_KS(eV) =             -898.4545

siesta: Atomic forces (eV/Ang):
----------------------------------------
   Tot    0.000973   -0.000014   -0.000784
----------------------------------------
   Max    1.837598
   Res    0.836000    sqrt( Sum f_i^2 / 3N )
----------------------------------------
   Max    1.837598    constrained

Stress tensor Voigt[x,y,z,yz,xz,xy] (kbar):      -18.69       -0.37        0.13        0.13        0.62       -0.77
(Free)E + p*V (eV/cell)     -894.5860
Target enthalpy (eV/cell)     -898.5239

siesta: Stress tensor (static) (eV/Ang**3):
        -0.001228   -0.000092    0.000312
        -0.000092   -0.000001    0.000045
         0.000312    0.000045    0.000112

siesta: Pressure (static):          0.59678522  kBar

siesta: Stress tensor (total) (eV/Ang**3):
        -0.011665   -0.000478    0.000389
        -0.000478   -0.000229    0.000082
         0.000389    0.000082    0.000081

siesta: Pressure (total):          6.30915472  kBar

siesta: Temp_ion =   14160.173 K

                     ====================================
                        Begin MD step =      9
                     ====================================

outcell: Unit cell vectors (Ang):
       10.000004    0.000000    0.000000
        0.000000   10.000004    0.000000
        0.000000    0.000000   10.000004

outcell: Cell vector modules (Ang)   :   10.000004   10.000004   10.000004
outcell: Cell angles (23,13,12) (deg):     90.0000     90.0000     90.0000
outcell: Cell volume (Ang**3)        :   1000.0012
<dSpData1D:S at geom step 9
  <sparsity:sparsity for geom step 9
    nrows_g=26 nrows=26 sparsity=1.0000 nnzs=676, refcount: 7>
  <dData1D:(new from dSpData1D) n=676, refcount: 1>
refcount: 1>
new_DM -- step:     9
Re-using DM from previous geometries...
Number of DMs in history: 1
 DM extrapolation coefficients: 
1   1.00000
New DM after history re-use:
<dSpData2D:SpM extrapolated using coords
  <sparsity:sparsity for geom step 9
    nrows_g=26 nrows=26 sparsity=1.0000 nnzs=676, refcount: 9>
  <dData2D:(temp array for extrapolation) n=676 m=1, refcount: 1>
refcount: 1>
Note: For starting DM, Qtot, Tr[D*S] =         14.00000000         14.05981694
No. of atoms with KB's overlaping orbs in proc 0. Max # of overlaps:       4      26

InitMesh: MESH = 90 x 90 x 90 = 729000
InitMesh: Mesh cutoff (required, used) =   200.000   223.865 Ry
New grid distribution [1]: sub = 2

        iscf     Eharris(eV)        E_KS(eV)     FreeEng(eV)     dDmax    Ef(eV) dHmax(eV)
   scf:    1     -898.685238     -898.443485     -898.512795  0.021090 -6.440285  0.889360
   scf:    2     -897.801082     -898.249959     -898.318923  0.120385 -5.918178  1.719975
   scf:    3     -898.526060     -898.452851     -898.522156  0.089082 -6.281207  0.537619
   scf:    4     -898.448672     -898.454859     -898.523939  0.056592 -6.039286  0.100211
   scf:    5     -898.457420     -898.456356     -898.525565  0.014803 -6.026308  0.053502
   scf:    6     -898.457240     -898.457489     -898.526803  0.029076 -6.027303  0.041779
   scf:    7     -898.457687     -898.457619     -898.526932  0.003991 -6.002195  0.012600
   scf:    8     -898.457634     -898.457632     -898.526946  0.002110 -6.003013  0.001717
   scf:    9     -898.457632     -898.457632     -898.526946  0.000541 -6.002109  0.001117
   scf:   10     -898.457632     -898.457632     -898.526946  0.000141 -6.002290  0.000645

SCF Convergence by DM+H criterion
max |DM_out - DM_in|         :     0.0001405271
max |H_out - H_in|      (eV) :     0.0006447817
SCF cycle converged after 10 iterations

Using DM_out to compute the final energy and forces
No. of atoms with KB's overlaping orbs in proc 0. Max # of overlaps:       4      26

siesta: E_KS(eV) =             -898.4576

siesta: Atomic forces (eV/Ang):
----------------------------------------
   Tot   -0.001753   -0.000334    0.000056
----------------------------------------
   Max    1.475646
   Res    0.877767    sqrt( Sum f_i^2 / 3N )
----------------------------------------
   Max    1.475646    constrained

Stress tensor Voigt[x,y,z,yz,xz,xy] (kbar):      -21.61       -0.45       -0.31       -0.04       -0.57       -1.27
(Free)E + p*V (eV/cell)     -893.8726
Target enthalpy (eV/cell)     -898.5269

siesta: Stress tensor (static) (eV/Ang**3):
        -0.002754   -0.000361   -0.000418
        -0.000361   -0.000048   -0.000069
        -0.000418   -0.000069   -0.000179

siesta: Pressure (static):          1.59200272  kBar

siesta: Stress tensor (total) (eV/Ang**3):
        -0.013490   -0.000792   -0.000354
        -0.000792   -0.000280   -0.000026
        -0.000354   -0.000026   -0.000194

siesta: Pressure (total):          7.45706450  kBar

siesta: Temp_ion =   14153.439 K

                     ====================================
                        Begin MD step =     10
                     ====================================

outcell: Unit cell vectors (Ang):
       10.000004    0.000000    0.000000
        0.000000   10.000004    0.000000
        0.000000    0.000000   10.000004

outcell: Cell vector modules (Ang)   :   10.000004   10.000004   10.000004
outcell: Cell angles (23,13,12) (deg):     90.0000     90.0000     90.0000
outcell: Cell volume (Ang**3)        :   1000.0012
<dSpData1D:S at geom step 10
  <sparsity:sparsity for geom step 10
    nrows_g=26 nrows=26 sparsity=1.0000 nnzs=676, refcount: 7>
  <dData1D:(new from dSpData1D) n=676, refcount: 1>
refcount: 1>
new_DM -- step:    10
Re-using DM from previous geometries...
Number of DMs in history: 1
 DM extrapolation coefficients: 
1   1.00000
New DM after history re-use:
<dSpData2D:SpM extrapolated using coords
  <sparsity:sparsity for geom step 10
    nrows_g=26 nrows=26 sparsity=1.0000 nnzs=676, refcount: 9>
  <dData2D:(temp array for extrapolation) n=676 m=1, refcount: 1>
refcount: 1>
Note: For starting DM, Qtot, Tr[D*S] =         14.00000000         14.03953090
No. of atoms with KB's overlaping orbs in proc 0. Max # of overlaps:       4      26

InitMesh: MESH = 90 x 90 x 90 = 729000
InitMesh: Mesh cutoff (required, used) =   200.000   223.865 Ry
New grid distribution [1]: sub = 2

        iscf     Eharris(eV)        E_KS(eV)     FreeEng(eV)     dDmax    Ef(eV) dHmax(eV)
   scf:    1     -898.418012     -898.279585     -898.348892  0.023810 -6.325351  0.676318
   scf:    2     -897.474366     -898.034987     -898.103930  0.082041 -6.036921  1.832862
   scf:    3     -898.354998     -898.292325     -898.361638  0.064945 -6.262222  0.283665
   scf:    4     -898.287088     -898.291734     -898.360844  0.041041 -6.135886  0.070682
   scf:    5     -898.293338     -898.292637     -898.361826  0.008111 -6.123543  0.032272
   scf:    6     -898.293743     -898.293812     -898.363126  0.026846 -6.120877  0.028541
   scf:    7     -898.293877     -898.293854     -898.363166  0.001678 -6.104667  0.006520
   scf:    8     -898.293859     -898.293859     -898.363173  0.001570 -6.103625  0.001338
   scf:    9     -898.293859     -898.293859     -898.363173  0.000330 -6.102905  0.000626
   scf:   10     -898.293859     -898.293859     -898.363173  0.000093 -6.103050  0.000416

SCF Convergence by DM+H criterion
max |DM_out - DM_in|         :     0.0000928714
max |H_out - H_in|      (eV) :     0.0004159257
SCF cycle converged after 10 iterations

Using DM_out to compute the final energy and forces
No. of atoms with KB's overlaping orbs in proc 0. Max # of overlaps:       4      26

siesta: E_KS(eV) =             -898.2939

siesta: Atomic forces (eV/Ang):
----------------------------------------
   Tot    0.000397   -0.000430   -0.000876
----------------------------------------
   Max    3.627282
   Res    1.715967    sqrt( Sum f_i^2 / 3N )
----------------------------------------
   Max    3.627282    constrained

Stress tensor Voigt[x,y,z,yz,xz,xy] (kbar):      -23.17       -0.55       -0.98       -0.29       -1.75       -1.67
(Free)E + p*V (eV/cell)     -893.2247
Target enthalpy (eV/cell)     -898.3632

siesta: Stress tensor (static) (eV/Ang**3):
        -0.003742   -0.000589   -0.001169
        -0.000589   -0.000106   -0.000225
        -0.001169   -0.000225   -0.000591

siesta: Pressure (static):          2.37038002  kBar

siesta: Stress tensor (total) (eV/Ang**3):
        -0.014463   -0.001043   -0.001090
        -0.001043   -0.000343   -0.000182
        -0.001090   -0.000182   -0.000609

siesta: Pressure (total):          8.23265250  kBar

siesta: Temp_ion =   13810.877 K

                     ====================================
                        Begin MD step =     11
                     ====================================

outcell: Unit cell vectors (Ang):
       10.000004    0.000000    0.000000
        0.000000   10.000004    0.000000
        0.000000    0.000000   10.000004

outcell: Cell vector modules (Ang)   :   10.000004   10.000004   10.000004
outcell: Cell angles (23,13,12) (deg):     90.0000     90.0000     90.0000
outcell: Cell volume (Ang**3)        :   1000.0012
<dSpData1D:S at geom step 11
  <sparsity:sparsity for geom step 11
    nrows_g=26 nrows=26 sparsity=1.0000 nnzs=676, refcount: 7>
  <dData1D:(new from dSpData1D) n=676, refcount: 1>
refcount: 1>
new_DM -- step:    11
Re-using DM from previous geometries...
Number of DMs in history: 1
 DM extrapolation coefficients: 
1   1.00000
New DM after history re-use:
<dSpData2D:SpM extrapolated using coords
  <sparsity:sparsity for geom step 11
    nrows_g=26 nrows=26 sparsity=1.0000 nnzs=676, refcount: 9>
  <dData2D:(temp array for extrapolation) n=676 m=1, refcount: 1>
refcount: 1>
No. of atoms with KB's overlaping orbs in proc 0. Max # of overlaps:       4      26

InitMesh: MESH = 90 x 90 x 90 = 729000
InitMesh: Mesh cutoff (required, used) =   200.000   223.865 Ry
New grid distribution [1]: sub = 2

        iscf     Eharris(eV)        E_KS(eV)     FreeEng(eV)     dDmax    Ef(eV) dHmax(eV)
   scf:    1     -898.271256     -898.328912     -898.398071  0.052042 -6.114532  0.471320
   scf:    2     -897.238307     -897.991853     -898.048605  0.350267 -6.243155  1.625599
   scf:    3     -898.398320     -898.338184     -898.407433  0.295386 -6.142167  0.114375
   scf:    4     -898.325555     -898.336294     -898.405232  0.073991 -6.166460  0.085523
   scf:    5     -898.340732     -898.339263     -898.408512  0.030290 -6.163970  0.104294
   scf:    6     -898.339180     -898.339787     -898.409100  0.024616 -6.237728  0.016982
   scf:    7     -898.339159     -898.339768     -898.409046  0.019044 -6.231683  0.016182
   scf:    8     -898.339924     -898.339944     -898.409255  0.010936 -6.241707  0.000647
   scf:    9     -898.339945     -898.339945     -898.409255  0.000417 -6.241529  0.000596
   scf:   10     -898.339944     -898.339945     -898.409255  0.000230 -6.241665  0.000487

SCF Convergence by DM+H criterion
max |DM_out - DM_in|         :     0.0002303517
max |H_out - H_in|      (eV) :     0.0004865110
SCF cycle converged after 10 iterations

Using DM_out to compute the final energy and forces
No. of atoms with KB's overlaping orbs in proc 0. Max # of overlaps:       4      26

siesta: E_KS(eV) =             -898.3399

siesta: Atomic forces (eV/Ang):
----------------------------------------
   Tot    0.002125   -0.000424    0.000451
----------------------------------------
   Max    2.793495
   Res    1.301552    sqrt( Sum f_i^2 / 3N )
----------------------------------------
   Max    2.793495    constrained

Stress tensor Voigt[x,y,z,yz,xz,xy] (kbar):      -21.49       -0.57       -1.09       -0.33       -1.46       -1.42
(Free)E + p*V (eV/cell)     -893.5935
Target enthalpy (eV/cell)     -898.4093

siesta: Stress tensor (static) (eV/Ang**3):
        -0.003026   -0.000426   -0.001012
        -0.000426   -0.000106   -0.000229
        -0.001012   -0.000229   -0.000605

siesta: Pressure (static):          1.99537174  kBar

siesta: Stress tensor (total) (eV/Ang**3):
        -0.013412   -0.000887   -0.000909
        -0.000887   -0.000354   -0.000205
        -0.000909   -0.000205   -0.000681

siesta: Pressure (total):          7.71575709  kBar

siesta: Temp_ion =   13876.184 K

                     ====================================
                        Begin MD step =     12
                     ====================================

outcell: Unit cell vectors (Ang):
       10.000004    0.000000    0.000000
        0.000000   10.000004    0.000000
        0.000000    0.000000   10.000004

outcell: Cell vector modules (Ang)   :   10.000004   10.000004   10.000004
outcell: Cell angles (23,13,12) (deg):     90.0000     90.0000     90.0000
outcell: Cell volume (Ang**3)        :   1000.0012
<dSpData1D:S at geom step 12
  <sparsity:sparsity for geom step 12
    nrows_g=26 nrows=26 sparsity=1.0000 nnzs=676, refcount: 7>
  <dData1D:(new from dSpData1D) n=676, refcount: 1>
refcount: 1>
new_DM -- step:    12
Re-using DM from previous geometries...
Number of DMs in history: 1
 DM extrapolation coefficients: 
1   1.00000
New DM after history re-use:
<dSpData2D:SpM extrapolated using coords
  <sparsity:sparsity for geom step 12
    nrows_g=26 nrows=26 sparsity=1.0000 nnzs=676, refcount: 9>
  <dData2D:(temp array for extrapolation) n=676 m=1, refcount: 1>
refcount: 1>
Note: For starting DM, Qtot, Tr[D*S] =         14.00000000         13.97467632
No. of atoms with KB's overlaping orbs in proc 0. Max # of overlaps:       4      26

InitMesh: MESH = 90 x 90 x 90 = 729000
InitMesh: Mesh cutoff (required, used) =   200.000   223.865 Ry
New grid distribution [1]: sub = 2

        iscf     Eharris(eV)        E_KS(eV)     FreeEng(eV)     dDmax    Ef(eV) dHmax(eV)
   scf:    1     -897.983771     -898.347792     -898.415816  0.088252 -6.025660  0.765531
   scf:    2     -896.419382     -897.765334     -897.782124  0.669900 -6.566680  1.365388
   scf:    3     -898.567633     -898.295842     -898.359907  0.382262 -6.201972  0.482868
   scf:    4     -898.213865     -898.256956     -898.317789  0.051381 -6.206009  0.515673
   scf:    5     -897.091323     -898.059567     -898.096712  0.694894 -6.465761  0.537914
   scf:    6     -898.233357     -898.150330     -898.197611  0.070222 -6.420107  0.448184
   scf:    7     -897.820373     -898.278708     -898.340975  0.601122 -6.429197  0.281474
   scf:    8     -898.331528     -898.306383     -898.370987  0.039592 -6.430423  0.233507
   scf:    9     -898.353215     -898.331399     -898.398046  0.044445 -6.432302  0.179798
   scf:   10     -898.376586     -898.358103     -898.426804  0.070962 -6.436285  0.094915
   scf:   11     -898.363033     -898.368031     -898.437221  0.095713 -6.437420  0.020439
   scf:   12     -898.353812     -898.364435     -898.433568  0.065665 -6.438171  0.058689
   scf:   13     -898.369485     -898.368329     -898.437640  0.040991 -6.439658  0.009348
   scf:   14     -898.368476     -898.368449     -898.437741  0.007534 -6.442378  0.000760
   scf:   15     -898.368450     -898.368449     -898.437741  0.000269 -6.441787  0.000719

SCF Convergence by DM+H criterion
max |DM_out - DM_in|         :     0.0002693611
max |H_out - H_in|      (eV) :     0.0007193920
SCF cycle converged after 15 iterations

Using DM_out to compute the final energy and forces
No. of atoms with KB's overlaping orbs in proc 0. Max # of overlaps:       4      26

siesta: E_KS(eV) =             -898.3684

siesta: Atomic forces (eV/Ang):
----------------------------------------
   Tot   -0.002343   -0.000177   -0.001280
----------------------------------------
   Max    0.624797
   Res    0.270824    sqrt( Sum f_i^2 / 3N )
----------------------------------------
   Max    0.624797    constrained

Stress tensor Voigt[x,y,z,yz,xz,xy] (kbar):      -19.52       -0.52       -0.51       -0.12       -0.18       -0.71
(Free)E + p*V (eV/cell)     -894.1611
Target enthalpy (eV/cell)     -898.4377

siesta: Stress tensor (static) (eV/Ang**3):
        -0.001952    0.000078   -0.000076
         0.000078   -0.000048   -0.000039
        -0.000076   -0.000039   -0.000068

siesta: Pressure (static):          1.10450578  kBar

siesta: Stress tensor (total) (eV/Ang**3):
        -0.012186   -0.000443   -0.000109
        -0.000443   -0.000323   -0.000077
        -0.000109   -0.000077   -0.000321

siesta: Pressure (total):          6.85194098  kBar

siesta: Temp_ion =   13890.799 K

                     ====================================
                        Begin MD step =     13
                     ====================================

outcell: Unit cell vectors (Ang):
       10.000004    0.000000    0.000000
        0.000000   10.000004    0.000000
        0.000000    0.000000   10.000004

outcell: Cell vector modules (Ang)   :   10.000004   10.000004   10.000004
outcell: Cell angles (23,13,12) (deg):     90.0000     90.0000     90.0000
outcell: Cell volume (Ang**3)        :   1000.0012
<dSpData1D:S at geom step 13
  <sparsity:sparsity for geom step 13
    nrows_g=26 nrows=26 sparsity=1.0000 nnzs=676, refcount: 7>
  <dData1D:(new from dSpData1D) n=676, refcount: 1>
refcount: 1>
new_DM -- step:    13
Re-using DM from previous geometries...
Number of DMs in history: 1
 DM extrapolation coefficients: 
1   1.00000
New DM after history re-use:
<dSpData2D:SpM extrapolated using coords
  <sparsity:sparsity for geom step 13
    nrows_g=26 nrows=26 sparsity=1.0000 nnzs=676, refcount: 9>
  <dData2D:(temp array for extrapolation) n=676 m=1, refcount: 1>
refcount: 1>
Note: For starting DM, Qtot, Tr[D*S] =         14.00000000         13.96045434
No. of atoms with KB's overlaping orbs in proc 0. Max # of overlaps:       4      26

InitMesh: MESH = 90 x 90 x 90 = 729000
InitMesh: Mesh cutoff (required, used) =   200.000   223.865 Ry
New grid distribution [1]: sub = 2

        iscf     Eharris(eV)        E_KS(eV)     FreeEng(eV)     dDmax    Ef(eV) dHmax(eV)
   scf:    1     -897.144384     -897.967829     -898.029961  0.197713 -6.181600  0.895576
   scf:    2     -895.714249     -897.386293     -897.386932  0.791436 -6.979822  1.134873
   scf:    3     -897.710070     -897.558060     -897.581906  0.073791 -6.551505  0.663652
   scf:    4     -897.323926     -897.444135     -897.451715  0.057734 -6.657018  0.768463
   scf:    5     -898.186760     -897.882998     -897.940142  0.281988 -6.653775  0.374226
   scf:    6     -898.082523     -898.045271     -898.114551  0.270060 -6.665383  0.047225
   scf:    7     -897.989485     -898.023010     -898.091123  0.079865 -6.644100  0.143821
   scf:    8     -897.928343     -898.024415     -898.090296  0.240054 -6.676977  0.146472
   scf:    9     -897.900631     -897.970313     -898.030229  0.096151 -6.664614  0.263411
   scf:   10     -898.055247     -898.018425     -898.083605  0.082689 -6.662205  0.163029
   scf:   11     -898.033030     -898.047122     -898.116414  0.158656 -6.670700  0.028402
   scf:   12     -898.047102     -898.048152     -898.117197  0.035096 -6.670732  0.013909
   scf:   13     -898.048317     -898.048253     -898.117353  0.004544 -6.671108  0.008439
   scf:   14     -898.048208     -898.048233     -898.117314  0.001466 -6.671287  0.009739
   scf:   15     -898.048296     -898.048286     -898.117420  0.005035 -6.672054  0.003623
   scf:   16     -898.048244     -898.048274     -898.117439  0.003240 -6.672663  0.002356
   scf:   17     -898.048275     -898.048275     -898.117440  0.000417 -6.673408  0.000748
   scf:   18     -898.048274     -898.048274     -898.117440  0.000037 -6.673438  0.000684

SCF Convergence by DM+H criterion
max |DM_out - DM_in|         :     0.0000374415
max |H_out - H_in|      (eV) :     0.0006844959
SCF cycle converged after 18 iterations

Using DM_out to compute the final energy and forces
No. of atoms with KB's overlaping orbs in proc 0. Max # of overlaps:       4      26

siesta: E_KS(eV) =             -898.0483

siesta: Atomic forces (eV/Ang):
----------------------------------------
   Tot   -0.002477   -0.000226   -0.000013
----------------------------------------
   Max    2.244856
   Res    0.917804    sqrt( Sum f_i^2 / 3N )
----------------------------------------
   Max    2.244856    constrained

Stress tensor Voigt[x,y,z,yz,xz,xy] (kbar):      -19.56       -0.55        0.18        0.09        0.93        0.01
(Free)E + p*V (eV/cell)     -893.9705
Target enthalpy (eV/cell)     -898.1174

siesta: Stress tensor (static) (eV/Ang**3):
        -0.002123    0.000587    0.000753
         0.000587   -0.000046    0.000147
         0.000753    0.000147    0.000501

siesta: Pressure (static):          0.89071350  kBar

siesta: Stress tensor (total) (eV/Ang**3):
        -0.012210    0.000003    0.000584
         0.000004   -0.000346    0.000058
         0.000584    0.000058    0.000115

siesta: Pressure (total):          6.64420211  kBar

siesta: Temp_ion =   13092.247 K

                     ====================================
                        Begin MD step =     14
                     ====================================

outcell: Unit cell vectors (Ang):
       10.000004    0.000000    0.000000
        0.000000   10.000004    0.000000
        0.000000    0.000000   10.000004

outcell: Cell vector modules (Ang)   :   10.000004   10.000004   10.000004
outcell: Cell angles (23,13,12) (deg):     90.0000     90.0000     90.0000
outcell: Cell volume (Ang**3)        :   1000.0012
<dSpData1D:S at geom step 14
  <sparsity:sparsity for geom step 14
    nrows_g=26 nrows=26 sparsity=1.0000 nnzs=676, refcount: 7>
  <dData1D:(new from dSpData1D) n=676, refcount: 1>
refcount: 1>
new_DM -- step:    14
Re-using DM from previous geometries...
Number of DMs in history: 1
 DM extrapolation coefficients: 
1   1.00000
New DM after history re-use:
<dSpData2D:SpM extrapolated using coords
  <sparsity:sparsity for geom step 14
    nrows_g=26 nrows=26 sparsity=1.0000 nnzs=676, refcount: 9>
  <dData2D:(temp array for extrapolation) n=676 m=1, refcount: 1>
refcount: 1>
Note: For starting DM, Qtot, Tr[D*S] =         14.00000000         13.96393564
No. of atoms with KB's overlaping orbs in proc 0. Max # of overlaps:       4      26

InitMesh: MESH = 90 x 90 x 90 = 729000
InitMesh: Mesh cutoff (required, used) =   200.000   223.865 Ry
New grid distribution [1]: sub = 2

        iscf     Eharris(eV)        E_KS(eV)     FreeEng(eV)     dDmax    Ef(eV) dHmax(eV)
   scf:    1     -896.035898     -897.319444     -897.361674  0.302306 -6.535733  0.750461
   scf:    2     -894.460031     -896.706858     -896.706874  0.838288 -7.051552  1.559694
   scf:    3     -897.039642     -896.886949     -896.906663  0.057839 -6.726930  0.868339
   scf:    4     -896.663250     -896.777629     -896.781962  0.039237 -6.792869  0.860782
   scf:    5     -896.928533     -896.854312     -896.869116  0.027886 -6.774989  0.746762
   scf:    6     -897.102347     -896.981894     -897.011569  0.054339 -6.787668  0.598686
   scf:    7     -897.233145     -897.112037     -897.154769  0.065935 -6.785657  0.511652
   scf:    8     -897.225392     -897.478646     -897.540763  0.537716 -6.790208  0.177499
   scf:    9     -897.498287     -897.504609     -897.572804  0.132010 -6.769256  0.039931
   scf:   10     -897.194002     -897.397523     -897.462278  0.215296 -6.769392  0.277657
   scf:   11     -897.510339     -897.460872     -897.529013  0.080584 -6.770048  0.180171
   scf:   12     -897.430280     -897.446211     -897.513798  0.023970 -6.773705  0.201039
   scf:   13     -897.391873     -897.488341     -897.551953  0.260566 -6.777446  0.114983
   scf:   14     -897.503589     -897.505184     -897.573269  0.095241 -6.776358  0.010267
   scf:   15     -897.505116     -897.505162     -897.573293  0.002666 -6.779546  0.009431
   scf:   16     -897.505167     -897.505166     -897.573300  0.000886 -6.779592  0.006308
   scf:   17     -897.505206     -897.505187     -897.573296  0.001173 -6.779368  0.005573
   scf:   18     -897.505159     -897.505175     -897.573309  0.000860 -6.777653  0.003674
   scf:   19     -897.505137     -897.505157     -897.573313  0.000683 -6.777692  0.001366
   scf:   20     -897.505158     -897.505157     -897.573313  0.000127 -6.777596  0.001192
   scf:   21     -897.505161     -897.505159     -897.573313  0.000135 -6.777542  0.001217
   scf:   22     -897.505154     -897.505157     -897.573313  0.000097 -6.777520  0.001178
   scf:   23     -897.505125     -897.505141     -897.573314  0.000504 -6.777206  0.000579
   scf:   24     -897.505145     -897.505143     -897.573314  0.000176 -6.777172  0.000541

SCF Convergence by DM+H criterion
max |DM_out - DM_in|         :     0.0001755187
max |H_out - H_in|      (eV) :     0.0005405324
SCF cycle converged after 24 iterations

Using DM_out to compute the final energy and forces
No. of atoms with KB's overlaping orbs in proc 0. Max # of overlaps:       4      26

siesta: E_KS(eV) =             -897.5051

siesta: Atomic forces (eV/Ang):
----------------------------------------
   Tot   -0.001393    0.000947    0.000622
----------------------------------------
   Max    3.150882
   Res    1.338650    sqrt( Sum f_i^2 / 3N )
----------------------------------------
   Max    3.150882    constrained

Stress tensor Voigt[x,y,z,yz,xz,xy] (kbar):      -21.11       -0.86        0.61        0.18        1.50        0.51
(Free)E + p*V (eV/cell)     -893.1275
Target enthalpy (eV/cell)     -897.5733

siesta: Stress tensor (static) (eV/Ang**3):
        -0.003658    0.000913    0.001060
         0.000913   -0.000231    0.000183
         0.001060    0.000183    0.000706

siesta: Pressure (static):          1.70016605  kBar

siesta: Stress tensor (total) (eV/Ang**3):
        -0.013176    0.000321    0.000939
         0.000321   -0.000540    0.000109
         0.000939    0.000109    0.000379

siesta: Pressure (total):          7.12289879  kBar

siesta: Temp_ion =   11720.910 K

                     ====================================
                        Begin MD step =     15
                     ====================================

outcell: Unit cell vectors (Ang):
       10.000004    0.000000    0.000000
        0.000000   10.000004    0.000000
        0.000000    0.000000   10.000004

outcell: Cell vector modules (Ang)   :   10.000004   10.000004   10.000004
outcell: Cell angles (23,13,12) (deg):     90.0000     90.0000     90.0000
outcell: Cell volume (Ang**3)        :   1000.0012
<dSpData1D:S at geom step 15
  <sparsity:sparsity for geom step 15
    nrows_g=26 nrows=26 sparsity=1.0000 nnzs=676, refcount: 7>
  <dData1D:(new from dSpData1D) n=676, refcount: 1>
refcount: 1>
new_DM -- step:    15
Re-using DM from previous geometries...
Number of DMs in history: 1
 DM extrapolation coefficients: 
1   1.00000
New DM after history re-use:
<dSpData2D:SpM extrapolated using coords
  <sparsity:sparsity for geom step 15
    nrows_g=26 nrows=26 sparsity=1.0000 nnzs=676, refcount: 9>
  <dData2D:(temp array for extrapolation) n=676 m=1, refcount: 1>
refcount: 1>
Note: For starting DM, Qtot, Tr[D*S] =         14.00000000         13.97551808
No. of atoms with KB's overlaping orbs in proc 0. Max # of overlaps:       4      26

InitMesh: MESH = 90 x 90 x 90 = 729000
InitMesh: Mesh cutoff (required, used) =   200.000   223.865 Ry
New grid distribution [1]: sub = 2

        iscf     Eharris(eV)        E_KS(eV)     FreeEng(eV)     dDmax    Ef(eV) dHmax(eV)
   scf:    1     -894.280433     -896.398753     -896.404891  0.430115 -6.770585  2.835521
   scf:    2     -880.983292     -892.154645     -892.154648  1.412336 -4.993045 10.808960
   scf:    3     -898.182140     -896.086750     -896.131422  0.544205 -6.429541  3.739459
   scf:    4     -895.895391     -896.735531     -896.756850  0.850509 -6.676424  1.131921
   scf:    5     -896.830379     -896.787703     -896.815652  0.047227 -6.654169  0.691569
   scf:    6     -894.095605     -896.158376     -896.195650  0.741305 -6.637764  1.834744
   scf:    7     -896.569371     -896.376969     -896.425591  0.109761 -6.654953  1.276195
   scf:    8     -895.896734     -896.576743     -896.620888  0.575382 -6.742520  2.101838
   scf:    9     -895.689806     -896.470400     -896.521863  0.487387 -6.661828  0.871323
   scf:   10     -895.167132     -895.950380     -895.980559  0.375383 -6.606485  2.611021
   scf:   11     -897.001092     -896.621858     -896.687541  0.374196 -6.550298  1.927721
   scf:   12     -896.565670     -896.612076     -896.678910  0.140285 -6.533603  1.821971
   scf:   13     -896.158907     -896.411360     -896.470971  0.177257 -6.535396  2.399996
   scf:   14     -896.503611     -896.702116     -896.766906  0.353036 -6.781285  0.902863
   scf:   15     -896.706831     -896.705410     -896.770199  0.018367 -6.768859  0.782384
   scf:   16     -896.693425     -896.865625     -896.925866  0.373914 -6.567961  0.891926
   scf:   17     -896.911556     -896.913244     -896.976559  0.085491 -6.677237  0.076103
   scf:   18     -896.911549     -896.912821     -896.976377  0.007175 -6.663098  0.097446
   scf:   19     -896.910019     -896.911516     -896.975370  0.009479 -6.661510  0.140886
   scf:   20     -896.909441     -896.910606     -896.974723  0.006522 -6.658033  0.200655
   scf:   21     -896.913087     -896.912051     -896.975503  0.012647 -6.658557  0.150716
   scf:   22     -896.915454     -896.914519     -896.977213  0.027366 -6.662882  0.027871
   scf:   23     -896.914711     -896.914627     -896.977213  0.002834 -6.664118  0.020994
   scf:   24     -896.914890     -896.914799     -896.977279  0.006403 -6.669102  0.004013
   scf:   25     -896.914626     -896.914714     -896.977288  0.001375 -6.669619  0.003400
   scf:   26     -896.914551     -896.914634     -896.977293  0.001100 -6.669853  0.003593
   scf:   27     -896.914616     -896.914625     -896.977295  0.000361 -6.669735  0.003893
   scf:   28     -896.914641     -896.914633     -896.977299  0.000392 -6.669343  0.002513
   scf:   29     -896.914616     -896.914625     -896.977301  0.000425 -6.669239  0.002670
   scf:   30     -896.914633     -896.914629     -896.977302  0.000358 -6.669191  0.002360
   scf:   31     -896.914637     -896.914633     -896.977302  0.000155 -6.669189  0.002051
   scf:   32     -896.914583     -896.914608     -896.977302  0.000481 -6.669255  0.001341
   scf:   33     -896.914602     -896.914605     -896.977302  0.000103 -6.669246  0.001124
   scf:   34     -896.914628     -896.914617     -896.977302  0.000222 -6.669164  0.000934

SCF Convergence by DM+H criterion
max |DM_out - DM_in|         :     0.0002216140
max |H_out - H_in|      (eV) :     0.0009340365
SCF cycle converged after 34 iterations

Using DM_out to compute the final energy and forces
No. of atoms with KB's overlaping orbs in proc 0. Max # of overlaps:       4      26

siesta: E_KS(eV) =             -896.9146

siesta: Atomic forces (eV/Ang):
----------------------------------------
   Tot   -0.000517    0.001681    0.000586
----------------------------------------
   Max    3.052593
   Res    1.595668    sqrt( Sum f_i^2 / 3N )
----------------------------------------
   Max    3.052593    constrained

Stress tensor Voigt[x,y,z,yz,xz,xy] (kbar):      -22.65       -1.62        0.26        0.00        1.18        0.56
(Free)E + p*V (eV/cell)     -891.9823
Target enthalpy (eV/cell)     -896.9773

siesta: Stress tensor (static) (eV/Ang**3):
        -0.005571    0.000978    0.000770
         0.000978   -0.000677    0.000039
         0.000770    0.000038    0.000354

siesta: Pressure (static):          3.14820857  kBar

siesta: Stress tensor (total) (eV/Ang**3):
        -0.014138    0.000349    0.000737
         0.000349   -0.001012    0.000003
         0.000737    0.000003    0.000164

siesta: Pressure (total):          8.00294167  kBar

siesta: Temp_ion =   10210.472 K

                     ====================================
                        Begin MD step =     16
                     ====================================

outcell: Unit cell vectors (Ang):
       10.000004    0.000000    0.000000
        0.000000   10.000004    0.000000
        0.000000    0.000000   10.000004

outcell: Cell vector modules (Ang)   :   10.000004   10.000004   10.000004
outcell: Cell angles (23,13,12) (deg):     90.0000     90.0000     90.0000
outcell: Cell volume (Ang**3)        :   1000.0012
<dSpData1D:S at geom step 16
  <sparsity:sparsity for geom step 16
[...]
   Max    7.165636
   Res    3.470797    sqrt( Sum f_i^2 / 3N )
----------------------------------------
   Max    7.165636    constrained

Stress tensor Voigt[x,y,z,yz,xz,xy] (kbar):       -1.61       -8.07       -0.33      -10.36       -4.83        1.47
(Free)E + p*V (eV/cell)     -895.3216
Target enthalpy (eV/cell)     -897.4038

siesta: Stress tensor (static) (eV/Ang**3):
         0.002144    0.003989   -0.000785
         0.003989   -0.000823   -0.003750
        -0.000785   -0.003750    0.001748

siesta: Pressure (static):         -1.63885321  kBar

siesta: Stress tensor (total) (eV/Ang**3):
        -0.001002    0.000919   -0.003012
         0.000919   -0.005037   -0.006465
        -0.003012   -0.006465   -0.000207

siesta: Pressure (total):          3.33596753  kBar

siesta: Temp_ion =   11649.616 K

                     ====================================
                        Begin MD step =    199
                     ====================================

outcell: Unit cell vectors (Ang):
       10.000004    0.000000    0.000000
        0.000000   10.000004    0.000000
        0.000000    0.000000   10.000004

outcell: Cell vector modules (Ang)   :   10.000004   10.000004   10.000004
outcell: Cell angles (23,13,12) (deg):     90.0000     90.0000     90.0000
outcell: Cell volume (Ang**3)        :   1000.0012
<dSpData1D:S at geom step 199
  <sparsity:sparsity for geom step 199
    nrows_g=26 nrows=26 sparsity=1.0000 nnzs=676, refcount: 7>
  <dData1D:(new from dSpData1D) n=676, refcount: 1>
refcount: 1>
new_DM -- step:   199
Re-using DM from previous geometries...
Number of DMs in history: 1
 DM extrapolation coefficients: 
1   1.00000
New DM after history re-use:
<dSpData2D:SpM extrapolated using coords
  <sparsity:sparsity for geom step 199
    nrows_g=26 nrows=26 sparsity=1.0000 nnzs=676, refcount: 9>
  <dData2D:(temp array for extrapolation) n=676 m=1, refcount: 1>
refcount: 1>
Note: For starting DM, Qtot, Tr[D*S] =         14.00000000         14.01815167
No. of atoms with KB's overlaping orbs in proc 0. Max # of overlaps:       4      26

InitMesh: MESH = 90 x 90 x 90 = 729000
InitMesh: Mesh cutoff (required, used) =   200.000   223.865 Ry
New grid distribution [1]: sub = 2

        iscf     Eharris(eV)        E_KS(eV)     FreeEng(eV)     dDmax    Ef(eV) dHmax(eV)
   scf:    1     -894.294585     -896.585849     -896.629798  0.208283 -7.162370  4.135409
   scf:    2     -837.040299     -879.201499     -879.201558  0.960543 -3.655514 18.794671
   scf:    3     -898.754529     -890.336311     -890.345240  0.394154 -6.704099 10.305338
   scf:    4     -889.251665     -889.799291     -889.804420  0.028860 -6.573072 10.853590
   scf:    5     -890.689456     -890.247853     -890.256581  0.018180 -6.682333 10.398778
   scf:    6     -898.463033     -895.034428     -895.098329  0.568380 -6.938194  6.224317
   scf:    7     -887.878524     -891.808986     -891.842377  0.438163 -6.858500  9.069593
   scf:    8     -817.910960     -876.917374     -876.922802  1.011725 -6.879940 18.509534
   scf:    9     -859.035373     -890.980476     -891.000967  1.132032 -6.813747  9.746244
   scf:   10     -883.315168     -895.301081     -895.304634  1.139236 -7.168405  5.987902
   scf:   11     -895.296423     -895.298804     -895.303301  0.007029 -7.167900  5.996864
   scf:   12     -897.512637     -897.556533     -897.583758  0.171358 -7.080643  0.280185
   scf:   13     -897.552029     -897.555844     -897.581586  0.015730 -7.084358  0.287360
   scf:   14     -897.448511     -897.535975     -897.574071  0.066914 -7.068394  0.970785
   scf:   15     -895.397811     -896.960755     -896.973706  0.141822 -7.138971  3.066849
   scf:   16     -890.313280     -895.861618     -895.915905  0.891921 -7.077737  4.334309
   scf:   17     -897.207122     -896.579847     -896.643638  0.150863 -7.082420  3.354193
   scf:   18     -897.674772     -897.632728     -897.685009  0.528314 -7.100488  0.315723
   scf:   19     -897.632099     -897.632673     -897.686496  0.015126 -7.102110  0.348942
   scf:   20     -896.317860     -897.175925     -897.245042  0.339428 -7.102848  2.208726
   scf:   21     -897.607973     -897.635699     -897.687114  0.360997 -7.106861  0.125301
   scf:   22     -897.632613     -897.634335     -897.685442  0.011482 -7.105693  0.169122
   scf:   23     -897.482169     -897.587364     -897.649004  0.137326 -7.088476  0.798014
   scf:   24     -897.647951     -897.635691     -897.692755  0.068907 -7.054004  0.065505
   scf:   25     -897.636787     -897.636332     -897.693203  0.009304 -7.049885  0.041112
   scf:   26     -897.635489     -897.637240     -897.692044  0.022835 -7.049121  0.160092
   scf:   27     -897.635637     -897.637204     -897.693510  0.015991 -7.051105  0.038901
   scf:   28     -897.637542     -897.637380     -897.693543  0.002346 -7.050455  0.034453
   scf:   29     -897.638479     -897.637977     -897.693492  0.007370 -7.050362  0.027005
   scf:   30     -897.638163     -897.638075     -897.693471  0.002039 -7.052119  0.025495
   scf:   31     -897.637190     -897.637690     -897.693612  0.005534 -7.056531  0.006999
   scf:   32     -897.637596     -897.637643     -897.693615  0.000623 -7.056583  0.005324
   scf:   33     -897.637574     -897.637609     -897.693619  0.000697 -7.056187  0.005229
   scf:   34     -897.637606     -897.637608     -897.693623  0.000454 -7.056116  0.004827
   scf:   35     -897.637608     -897.637610     -897.693625  0.001763 -7.056832  0.002035
   scf:   36     -897.637608     -897.637609     -897.693626  0.000186 -7.056922  0.001893
   scf:   37     -897.637655     -897.637633     -897.693628  0.001017 -7.057448  0.000844
   scf:   38     -897.637632     -897.637633     -897.693628  0.000018 -7.057453  0.000845

SCF Convergence by DM+H criterion
max |DM_out - DM_in|         :     0.0000184633
max |H_out - H_in|      (eV) :     0.0008452672
SCF cycle converged after 38 iterations

Using DM_out to compute the final energy and forces
No. of atoms with KB's overlaping orbs in proc 0. Max # of overlaps:       4      26

siesta: E_KS(eV) =             -897.6376

siesta: Atomic forces (eV/Ang):
----------------------------------------
   Tot   -0.001948    0.010997    0.001565
----------------------------------------
   Max    6.123116
   Res    2.865187    sqrt( Sum f_i^2 / 3N )
----------------------------------------
   Max    6.123116    constrained

Stress tensor Voigt[x,y,z,yz,xz,xy] (kbar):       -1.15       -4.70       -3.42       -8.97       -4.34        2.07
(Free)E + p*V (eV/cell)     -895.7652
Target enthalpy (eV/cell)     -897.6936

siesta: Stress tensor (static) (eV/Ang**3):
         0.002075    0.003967   -0.000237
         0.003966    0.000324   -0.002612
        -0.000236   -0.002612    0.000851

siesta: Pressure (static):         -1.73547013  kBar

siesta: Stress tensor (total) (eV/Ang**3):
        -0.000718    0.001290   -0.002708
         0.001289   -0.002935   -0.005600
        -0.002708   -0.005600   -0.002133

siesta: Pressure (total):          3.08973337  kBar

siesta: Temp_ion =   12358.906 K

                     ====================================
                        Begin MD step =    200
                     ====================================

outcell: Unit cell vectors (Ang):
       10.000004    0.000000    0.000000
        0.000000   10.000004    0.000000
        0.000000    0.000000   10.000004

outcell: Cell vector modules (Ang)   :   10.000004   10.000004   10.000004
outcell: Cell angles (23,13,12) (deg):     90.0000     90.0000     90.0000
outcell: Cell volume (Ang**3)        :   1000.0012
<dSpData1D:S at geom step 200
  <sparsity:sparsity for geom step 200
    nrows_g=26 nrows=26 sparsity=1.0000 nnzs=676, refcount: 7>
  <dData1D:(new from dSpData1D) n=676, refcount: 1>
refcount: 1>
new_DM -- step:   200
Re-using DM from previous geometries...
Number of DMs in history: 1
 DM extrapolation coefficients: 
1   1.00000
New DM after history re-use:
<dSpData2D:SpM extrapolated using coords
  <sparsity:sparsity for geom step 200
    nrows_g=26 nrows=26 sparsity=1.0000 nnzs=676, refcount: 9>
  <dData2D:(temp array for extrapolation) n=676 m=1, refcount: 1>
refcount: 1>
No. of atoms with KB's overlaping orbs in proc 0. Max # of overlaps:       4      26

InitMesh: MESH = 90 x 90 x 90 = 729000
InitMesh: Mesh cutoff (required, used) =   200.000   223.865 Ry
New grid distribution [1]: sub = 2

        iscf     Eharris(eV)        E_KS(eV)     FreeEng(eV)     dDmax    Ef(eV) dHmax(eV)
   scf:    1     -897.168229     -897.888291     -897.951039  0.272884 -7.020653  0.885000
   scf:    2     -888.548095     -895.041573     -895.041578  0.793357 -6.546054  6.457071
   scf:    3     -898.062366     -898.078931     -898.139935  0.517607 -6.986266  0.511561
   scf:    4     -897.919059     -898.022425     -898.072064  0.129901 -6.963922  0.341132
   scf:    5     -893.232241     -896.272653     -896.272677  0.339377 -6.769019  4.352168
   scf:    6     -898.653880     -897.820455     -897.862549  0.373971 -6.879152  1.740793
   scf:    7     -897.773629     -897.797371     -897.837466  0.018749 -6.876989  1.769093
   scf:    8     -897.721511     -897.882984     -897.940045  0.365226 -6.903170  1.772647
   scf:    9     -896.431534     -897.339575     -897.353686  0.469031 -6.983969  1.629889
   scf:   10     -896.995978     -897.182362     -897.200855  0.061784 -6.966427  2.224786
   scf:   11     -897.059865     -897.121787     -897.138320  0.015726 -6.966185  2.346208
   scf:   12     -896.682083     -896.909278     -896.911400  0.083210 -6.994122  2.559892
   scf:   13     -896.893948     -896.905029     -896.909394  0.056874 -7.019951  2.511337
   scf:   14     -897.217832     -897.331485     -897.394393  0.654043 -7.021310  2.519502
   scf:   15     -896.928401     -897.860448     -897.877477  0.730998 -6.964506  0.472408
   scf:   16     -897.934151     -898.018783     -898.063041  0.316812 -6.989707  1.061436
   scf:   17     -898.001491     -898.063905     -898.115069  0.203492 -6.978834  0.498135
   scf:   18     -897.914193     -898.084159     -898.135580  0.356974 -6.977491  0.197140
   scf:   19     -897.207543     -897.871687     -897.937657  0.436043 -6.977000  1.492930
   scf:   20     -898.168496     -898.043065     -898.109502  0.133627 -6.974766  0.959649
   scf:   21     -898.110042     -898.130319     -898.189788  0.190855 -6.978213  0.067435
   scf:   22     -898.123070     -898.129748     -898.192112  0.045306 -6.977906  0.206222
   scf:   23     -898.133061     -898.131889     -898.193781  0.009785 -6.976361  0.094027
   scf:   24     -898.132670     -898.132450     -898.193800  0.010255 -6.972718  0.039226
   scf:   25     -898.130349     -898.132051     -898.192697  0.012273 -6.967184  0.126454
   scf:   26     -898.131671     -898.132750     -898.194491  0.027470 -6.965489  0.010745
   scf:   27     -898.132701     -898.132726     -898.194491  0.001108 -6.965350  0.009954
   scf:   28     -898.133093     -898.132930     -898.194508  0.005341 -6.964665  0.008038
   scf:   29     -898.132874     -898.132903     -898.194525  0.001081 -6.964937  0.009100
   scf:   30     -898.132624     -898.132772     -898.194558  0.002837 -6.965617  0.004022
   scf:   31     -898.132707     -898.132740     -898.194559  0.000580 -6.964824  0.004806
   scf:   32     -898.132716     -898.132729     -898.194563  0.000963 -6.964109  0.002011
   scf:   33     -898.132729     -898.132729     -898.194564  0.000340 -6.964093  0.001766
   scf:   34     -898.132697     -898.132713     -898.194565  0.000463 -6.964186  0.001525
   scf:   35     -898.132709     -898.132711     -898.194565  0.000124 -6.964177  0.001496
   scf:   36     -898.132737     -898.132724     -898.194565  0.000428 -6.964057  0.001310
   scf:   37     -898.132739     -898.132732     -898.194565  0.000116 -6.964059  0.001159
   scf:   38     -898.132669     -898.132701     -898.194566  0.000443 -6.964000  0.000407
   scf:   39     -898.132712     -898.132706     -898.194566  0.000101 -6.963934  0.000327

SCF Convergence by DM+H criterion
max |DM_out - DM_in|         :     0.0001014726
max |H_out - H_in|      (eV) :     0.0003266650
SCF cycle converged after 39 iterations

Using DM_out to compute the final energy and forces
No. of atoms with KB's overlaping orbs in proc 0. Max # of overlaps:       4      26

siesta: E_KS(eV) =             -898.1327

siesta: Atomic forces (eV/Ang):
----------------------------------------
   Tot   -0.004983    0.000855   -0.003778
----------------------------------------
   Max    1.919452
   Res    1.067687    sqrt( Sum f_i^2 / 3N )
----------------------------------------
   Max    1.919452    constrained

Stress tensor Voigt[x,y,z,yz,xz,xy] (kbar):       -2.35       -1.05       -5.75       -6.04       -4.12        0.17
(Free)E + p*V (eV/cell)     -896.2916
Target enthalpy (eV/cell)     -898.1946

siesta: Stress tensor (static) (eV/Ang**3):
         0.001091    0.002359   -0.000080
         0.002359    0.002212   -0.000396
        -0.000080   -0.000395    0.000573

siesta: Pressure (static):         -2.07012001  kBar

siesta: Stress tensor (total) (eV/Ang**3):
        -0.001466    0.000104   -0.002569
         0.000104   -0.000652   -0.003772
        -0.002569   -0.003771   -0.003591

siesta: Pressure (total):          3.04886721  kBar

siesta: Temp_ion =   13450.904 K

coxmol: Writing XMOL coordinates into file xoc.xyz                                                                                                                                                                                                                             

siesta: Program's energy decomposition (eV):
siesta: Ebs     =      -183.396311
siesta: Eions   =      1581.702395
siesta: Ena     =       338.319443
siesta: Ekin    =       643.814104
siesta: Enl     =       -97.534266
siesta: Eso     =         0.000000
siesta: Edftu   =         0.000000
siesta: DEna    =         5.000815
siesta: DUscf   =         0.912416
siesta: DUext   =         0.000000
siesta: Ex      =      -193.026102
siesta: Ec      =       -13.916721
siesta: Exc     =      -206.942823
siesta: EbV     =         0.000000
siesta: eta*DQ  =         0.000000
siesta: Emadel  =         0.000000
siesta: Emeta   =         0.000000
siesta: Emolmec =         0.000000
siesta: Ekinion =         5.215992
siesta: Eharris =      -892.916720
siesta: Etot    =      -892.916715
siesta: FreeEng =      -892.978574

siesta: Final energy (eV):
siesta:  Band Struct. =    -183.396311
siesta:       Kinetic =     643.814104
siesta:       Hartree =     853.290220
siesta:         Edftu =       0.000000
siesta:       Eso     =       0.000000
siesta:    Ext. field =       0.000000
siesta:         Exch. =    -193.026102
siesta:         Corr. =     -13.916721
siesta:     Bulk bias =       0.000000
siesta:   Exch.-corr. =    -206.942823
siesta:  Ion-electron =   -2269.940742
siesta:       Ion-ion =      81.646534
siesta:       Ekinion =       5.215992
siesta: D3 dispersion =       0.000000
siesta:         Total =    -892.916715
siesta:         Fermi =      -6.963934

siesta: Atomic forces (eV/Ang):
siesta:      1    1.286955    1.565026   -0.654655
siesta:      2    0.724698   -1.919452   -0.915776
siesta:      3   -0.996337    0.558851    0.292126
siesta:      4   -1.020299   -0.203570    1.274528
siesta: ----------------------------------------
siesta:    Tot   -0.004983    0.000855   -0.003778

siesta: Stress tensor (static) (eV/Ang**3):
siesta:     0.001091    0.002359   -0.000080
siesta:     0.002359    0.002212   -0.000396
siesta:    -0.000080   -0.000395    0.000573

siesta: Cell volume =       1000.001196 Ang**3

siesta: Pressure (static):
siesta:                Solid            Molecule  Units
siesta:          -0.00001407         -0.00000004  Ry/Bohr**3
siesta:          -0.00129207         -0.00000375  eV/Ang**3
siesta:          -2.07012001         -0.00600864  kBar
(Free)E+ p_basis*V_orbitals  =        -897.435857
(Free)Eharris+ p_basis*V_orbitals  =        -897.435862

siesta: Electric dipole (a.u.)  =    0.000868    0.483672    0.045972
siesta: Electric dipole (Debye) =    0.002207    1.229373    0.116848

cite: Please see "xoc.bib" for an exhaustive BiBTeX file.
cite: Please clearly indicate Siesta version in published work: 5.2.1
cite: This calculation has made use of the following articles
cite: which are encouraged to be cited in a published work.
        Primary SIESTA paper
          DOI: www.doi.org/10.1088/0953-8984/14/11/302


timer: Elapsed wall time (sec) =    1041.015
timer: CPU execution times (sec):

Routine            Calls   Time/call    Tot.time        %
siesta                 1    4900.531    4900.531   100.00
Setup                  1       1.087       1.087     0.02
bands                  1       0.000       0.000     0.00
KSV_init               1       0.000       0.000     0.00
IterGeom             200      24.497    4899.442    99.98
geom_init            200       0.192      38.455     0.78
state_init           200       0.001       0.130     0.00
hsparse              200       0.000       0.008     0.00
overlap              200       0.000       0.088     0.00
Setup_H0             200       0.088      17.608     0.36
naefs                400       0.000       0.006     0.00
dnaefs               400       0.000       0.003     0.00
MolMec               400       0.000       0.000     0.00
kinefsm              400       0.000       0.117     0.00
nlefsm               400       0.002       0.639     0.01
DHSCF_Init           200       0.085      17.003     0.35
DHSCF1               200       0.008       1.519     0.03
InitMesh             200       0.008       1.518     0.03
INITMESH             200       0.000       0.000     0.00
DHSCF2               200       0.077      15.483     0.32
REMESH               200       0.003       0.598     0.01
REORD              21012       0.002      44.717     0.91
PHION                200       0.037       7.410     0.15
COMM_BSC           36624       0.002      59.964     1.22
POISON              9206       0.158    1450.961    29.61
fft                18412       0.057    1042.720    21.28
setup_H             8806       0.549    4837.394    98.71
DHSCF               9006       0.540    4864.647    99.27
DHSCF3              9006       0.539    4851.446    99.00
rhoofd              9006       0.034     309.928     6.32
XC                  9006       0.293    2638.536    53.84
GXC-CellXC          9006       0.280    2523.525    51.49
gridxc@cellXC       9006       0.280    2523.331    51.49
vmat                9006       0.004      35.931     0.73
IterSCF             8606       0.561    4826.795    98.50
compute_dm          8606       0.001       9.096     0.19
diagon              8606       0.001       8.978     0.18
r-eigvec            8606       0.001       7.708     0.16
r-buildHS           8606       0.000       0.018     0.00
rdiag               8606       0.001       7.657     0.16
rdiag1              8606       0.000       0.030     0.00
rdiag2              8606       0.000       0.104     0.00
rdiag3              8606       0.001       7.112     0.15
rdiag4              8606       0.000       0.303     0.01
r-buildD            8606       0.000       0.835     0.02
MIXER               8406       0.000       0.210     0.00
PostSCF              200       0.170      34.011     0.69
FINAL_HF             200       0.170      34.009     0.69
DHSCF4               200       0.066      13.170     0.27
dfscf                200       0.049       9.783     0.20
overfsm              200       0.000       0.032     0.00
writeHSX             200       0.000       0.015     0.00
state_analysis       200       0.000       0.018     0.00
siesta_move          200       0.000       0.045     0.00
Analysis               1       0.000       0.000     0.00
optical                1       0.000       0.000     0.00
  

>> End of run:  26-MAR-2025  18:17:55
Job completed
